s 1.000000000 _0_ RTR  --- 0 SB 20 [0 0 0 0] ------- [0:255 -1:255 32 0] 
r 1.001224186 _1_ RTR  --- 0 SB 20 [0 ffffffff 0 800] ------- [0:255 -1:255 32 0] 
f 1.001224186 _1_ RTR  --- 0 SB 20 [0 ffffffff 0 800] ------- [0:255 -1:255 32 0] 
r 1.001224186 _2_ RTR  --- 0 SB 20 [0 ffffffff 0 800] ------- [0:255 -1:255 32 0] 
f 1.001224186 _2_ RTR  --- 0 SB 20 [0 ffffffff 0 800] ------- [0:255 -1:255 32 0] 
r 1.001988353 _1_ RTR  --- 0 SB 20 [0 ffffffff 2 800] ------- [0:255 -1:255 32 0] 
r 1.001988353 _5_ RTR  --- 0 SB 20 [0 ffffffff 2 800] ------- [0:255 -1:255 32 0] 
f 1.001988353 _5_ RTR  --- 0 SB 20 [0 ffffffff 2 800] ------- [0:255 -1:255 32 0] 
r 1.001988373 _0_ RTR  --- 0 SB 20 [0 ffffffff 2 800] ------- [0:255 -1:255 32 0] 
r 1.001988422 _4_ RTR  --- 0 SB 20 [0 ffffffff 2 800] ------- [0:255 -1:255 32 0] 
f 1.001988422 _4_ RTR  --- 0 SB 20 [0 ffffffff 2 800] ------- [0:255 -1:255 32 0] 
r 1.001988422 _6_ RTR  --- 0 SB 20 [0 ffffffff 2 800] ------- [0:255 -1:255 32 0] 
f 1.001988422 _6_ RTR  --- 0 SB 20 [0 ffffffff 2 800] ------- [0:255 -1:255 32 0] 
r 1.002952589 _3_ RTR  --- 0 SB 20 [0 ffffffff 4 800] ------- [0:255 -1:255 32 0] 
f 1.002952589 _3_ RTR  --- 0 SB 20 [0 ffffffff 4 800] ------- [0:255 -1:255 32 0] 
r 1.002952589 _1_ RTR  --- 0 SB 20 [0 ffffffff 4 800] ------- [0:255 -1:255 32 0] 
r 1.002952589 _5_ RTR  --- 0 SB 20 [0 ffffffff 4 800] ------- [0:255 -1:255 32 0] 
r 1.002952589 _8_ RTR  --- 0 SB 20 [0 ffffffff 4 800] ------- [0:255 -1:255 32 0] 
f 1.002952589 _8_ RTR  --- 0 SB 20 [0 ffffffff 4 800] ------- [0:255 -1:255 32 0] 
r 1.002952658 _2_ RTR  --- 0 SB 20 [0 ffffffff 4 800] ------- [0:255 -1:255 32 0] 
r 1.002952658 _7_ RTR  --- 0 SB 20 [0 ffffffff 4 800] ------- [0:255 -1:255 32 0] 
f 1.002952658 _7_ RTR  --- 0 SB 20 [0 ffffffff 4 800] ------- [0:255 -1:255 32 0] 
r 1.002952658 _9_ RTR  --- 0 SB 20 [0 ffffffff 4 800] ------- [0:255 -1:255 32 0] 
f 1.002952658 _9_ RTR  --- 0 SB 20 [0 ffffffff 4 800] ------- [0:255 -1:255 32 0] 
r 1.003736824 _8_ RTR  --- 0 SB 20 [0 ffffffff 9 800] ------- [0:255 -1:255 32 0] 
r 1.003736824 _5_ RTR  --- 0 SB 20 [0 ffffffff 9 800] ------- [0:255 -1:255 32 0] 
r 1.003736824 _10_ RTR  --- 0 SB 20 [0 ffffffff 9 800] ------- [0:255 -1:255 32 0] 
f 1.003736824 _10_ RTR  --- 0 SB 20 [0 ffffffff 9 800] ------- [0:255 -1:255 32 0] 
r 1.003736824 _13_ RTR  --- 0 SB 20 [0 ffffffff 9 800] ------- [0:255 -1:255 32 0] 
f 1.003736824 _13_ RTR  --- 0 SB 20 [0 ffffffff 9 800] ------- [0:255 -1:255 32 0] 
r 1.003736893 _6_ RTR  --- 0 SB 20 [0 ffffffff 9 800] ------- [0:255 -1:255 32 0] 
r 1.003736893 _4_ RTR  --- 0 SB 20 [0 ffffffff 9 800] ------- [0:255 -1:255 32 0] 
r 1.003736893 _12_ RTR  --- 0 SB 20 [0 ffffffff 9 800] ------- [0:255 -1:255 32 0] 
f 1.003736893 _12_ RTR  --- 0 SB 20 [0 ffffffff 9 800] ------- [0:255 -1:255 32 0] 
r 1.003736893 _14_ RTR  --- 0 SB 20 [0 ffffffff 9 800] ------- [0:255 -1:255 32 0] 
f 1.003736893 _14_ RTR  --- 0 SB 20 [0 ffffffff 9 800] ------- [0:255 -1:255 32 0] 
r 1.004520991 _12_ RTR  --- 0 SB 20 [0 ffffffff d 800] ------- [0:255 -1:255 32 0] 
r 1.004520991 _9_ RTR  --- 0 SB 20 [0 ffffffff d 800] ------- [0:255 -1:255 32 0] 
r 1.004520991 _14_ RTR  --- 0 SB 20 [0 ffffffff d 800] ------- [0:255 -1:255 32 0] 
r 1.004520991 _16_ RTR  --- 0 SB 20 [0 ffffffff d 800] ------- [0:255 -1:255 32 0] 
f 1.004520991 _16_ RTR  --- 0 SB 20 [0 ffffffff d 800] ------- [0:255 -1:255 32 0] 
r 1.004521060 _10_ RTR  --- 0 SB 20 [0 ffffffff d 800] ------- [0:255 -1:255 32 0] 
r 1.004521060 _8_ RTR  --- 0 SB 20 [0 ffffffff d 800] ------- [0:255 -1:255 32 0] 
r 1.004521060 _15_ RTR  --- 0 SB 20 [0 ffffffff d 800] ------- [0:255 -1:255 32 0] 
f 1.004521060 _15_ RTR  --- 0 SB 20 [0 ffffffff d 800] ------- [0:255 -1:255 32 0] 
r 1.005355158 _13_ RTR  --- 0 SB 20 [0 ffffffff e 800] ------- [0:255 -1:255 32 0] 
r 1.005355158 _10_ RTR  --- 0 SB 20 [0 ffffffff e 800] ------- [0:255 -1:255 32 0] 
r 1.005355227 _9_ RTR  --- 0 SB 20 [0 ffffffff e 800] ------- [0:255 -1:255 32 0] 
r 1.005355227 _16_ RTR  --- 0 SB 20 [0 ffffffff e 800] ------- [0:255 -1:255 32 0] 
r 1.006269324 _9_ RTR  --- 0 SB 20 [0 ffffffff a 800] ------- [0:255 -1:255 32 0] 
r 1.006269324 _6_ RTR  --- 0 SB 20 [0 ffffffff a 800] ------- [0:255 -1:255 32 0] 
r 1.006269324 _14_ RTR  --- 0 SB 20 [0 ffffffff a 800] ------- [0:255 -1:255 32 0] 
r 1.006269393 _5_ RTR  --- 0 SB 20 [0 ffffffff a 800] ------- [0:255 -1:255 32 0] 
r 1.006269393 _13_ RTR  --- 0 SB 20 [0 ffffffff a 800] ------- [0:255 -1:255 32 0] 
r 1.007023491 _5_ RTR  --- 0 SB 20 [0 ffffffff 6 800] ------- [0:255 -1:255 32 0] 
r 1.007023491 _10_ RTR  --- 0 SB 20 [0 ffffffff 6 800] ------- [0:255 -1:255 32 0] 
r 1.007023560 _2_ RTR  --- 0 SB 20 [0 ffffffff 6 800] ------- [0:255 -1:255 32 0] 
r 1.007023560 _9_ RTR  --- 0 SB 20 [0 ffffffff 6 800] ------- [0:255 -1:255 32 0] 
r 1.007757658 _4_ RTR  --- 0 SB 20 [0 ffffffff 5 800] ------- [0:255 -1:255 32 0] 
r 1.007757658 _2_ RTR  --- 0 SB 20 [0 ffffffff 5 800] ------- [0:255 -1:255 32 0] 
r 1.007757658 _6_ RTR  --- 0 SB 20 [0 ffffffff 5 800] ------- [0:255 -1:255 32 0] 
r 1.007757658 _9_ RTR  --- 0 SB 20 [0 ffffffff 5 800] ------- [0:255 -1:255 32 0] 
r 1.007757727 _1_ RTR  --- 0 SB 20 [0 ffffffff 5 800] ------- [0:255 -1:255 32 0] 
r 1.007757727 _8_ RTR  --- 0 SB 20 [0 ffffffff 5 800] ------- [0:255 -1:255 32 0] 
r 1.007757727 _10_ RTR  --- 0 SB 20 [0 ffffffff 5 800] ------- [0:255 -1:255 32 0] 
r 1.008471893 _2_ RTR  --- 0 SB 20 [0 ffffffff 1 800] ------- [0:255 -1:255 32 0] 
r 1.008471893 _4_ RTR  --- 0 SB 20 [0 ffffffff 1 800] ------- [0:255 -1:255 32 0] 
r 1.008471913 _0_ RTR  --- 0 SB 20 [0 ffffffff 1 800] ------- [0:255 -1:255 32 0] 
r 1.008471962 _3_ RTR  --- 0 SB 20 [0 ffffffff 1 800] ------- [0:255 -1:255 32 0] 
r 1.008471962 _5_ RTR  --- 0 SB 20 [0 ffffffff 1 800] ------- [0:255 -1:255 32 0] 
r 1.009606129 _4_ RTR  --- 0 SB 20 [0 ffffffff 3 800] ------- [0:255 -1:255 32 0] 
r 1.009606129 _7_ RTR  --- 0 SB 20 [0 ffffffff 3 800] ------- [0:255 -1:255 32 0] 
r 1.009606198 _1_ RTR  --- 0 SB 20 [0 ffffffff 3 800] ------- [0:255 -1:255 32 0] 
r 1.009606198 _8_ RTR  --- 0 SB 20 [0 ffffffff 3 800] ------- [0:255 -1:255 32 0] 
r 1.010300365 _7_ RTR  --- 0 SB 20 [0 ffffffff 8 800] ------- [0:255 -1:255 32 0] 
r 1.010300365 _4_ RTR  --- 0 SB 20 [0 ffffffff 8 800] ------- [0:255 -1:255 32 0] 
r 1.010300365 _9_ RTR  --- 0 SB 20 [0 ffffffff 8 800] ------- [0:255 -1:255 32 0] 
r 1.010300365 _12_ RTR  --- 0 SB 20 [0 ffffffff 8 800] ------- [0:255 -1:255 32 0] 
r 1.010300434 _5_ RTR  --- 0 SB 20 [0 ffffffff 8 800] ------- [0:255 -1:255 32 0] 
r 1.010300434 _3_ RTR  --- 0 SB 20 [0 ffffffff 8 800] ------- [0:255 -1:255 32 0] 
r 1.010300434 _11_ RTR  --- 0 SB 20 [0 ffffffff 8 800] ------- [0:255 -1:255 32 0] 
f 1.010300434 _11_ RTR  --- 0 SB 20 [0 ffffffff 8 800] ------- [0:255 -1:255 32 0] 
r 1.010300434 _13_ RTR  --- 0 SB 20 [0 ffffffff 8 800] ------- [0:255 -1:255 32 0] 
r 1.011114532 _11_ RTR  --- 0 SB 20 [0 ffffffff c 800] ------- [0:255 -1:255 32 0] 
r 1.011114532 _8_ RTR  --- 0 SB 20 [0 ffffffff c 800] ------- [0:255 -1:255 32 0] 
r 1.011114532 _13_ RTR  --- 0 SB 20 [0 ffffffff c 800] ------- [0:255 -1:255 32 0] 
r 1.011114532 _15_ RTR  --- 0 SB 20 [0 ffffffff c 800] ------- [0:255 -1:255 32 0] 
r 1.011114601 _9_ RTR  --- 0 SB 20 [0 ffffffff c 800] ------- [0:255 -1:255 32 0] 
r 1.011114601 _7_ RTR  --- 0 SB 20 [0 ffffffff c 800] ------- [0:255 -1:255 32 0] 
r 1.011114601 _16_ RTR  --- 0 SB 20 [0 ffffffff c 800] ------- [0:255 -1:255 32 0] 
r 1.011868767 _3_ RTR  --- 0 SB 20 [0 ffffffff 7 800] ------- [0:255 -1:255 32 0] 
r 1.011868780 _17_ RTR  --- 0 SB 20 [0 ffffffff 10 800] ------- [0:255 -1:255 32 0] 
f 1.011868780 _17_ RTR  --- 0 SB 20 [0 ffffffff 10 800] ------- [0:255 -1:255 32 0] 
r 1.011868836 _4_ RTR  --- 0 SB 20 [0 ffffffff 7 800] ------- [0:255 -1:255 32 0] 
r 1.011868836 _14_ RTR  --- 0 SB 20 [0 ffffffff 10 800] ------- [0:255 -1:255 32 0] 
r 1.012927140 _12_ RTR  --- 0 SB 20 [0 ffffffff f 800] ------- [0:255 -1:255 32 0] 
r 1.012927140 _16_ RTR  --- 0 SB 20 [0 ffffffff f 800] ------- [0:255 -1:255 32 0] 
r 1.012927168 _17_ RTR  --- 0 SB 20 [0 ffffffff f 800] ------- [0:255 -1:255 32 0] 
r 1.012927209 _13_ RTR  --- 0 SB 20 [0 ffffffff f 800] ------- [0:255 -1:255 32 0] 
r 1.012927209 _11_ RTR  --- 0 SB 20 [0 ffffffff f 800] ------- [0:255 -1:255 32 0] 
r 1.013761376 _7_ RTR  --- 0 SB 20 [0 ffffffff b 800] ------- [0:255 -1:255 32 0] 
r 1.013761376 _12_ RTR  --- 0 SB 20 [0 ffffffff b 800] ------- [0:255 -1:255 32 0] 
r 1.013761445 _8_ RTR  --- 0 SB 20 [0 ffffffff b 800] ------- [0:255 -1:255 32 0] 
r 1.013761445 _15_ RTR  --- 0 SB 20 [0 ffffffff b 800] ------- [0:255 -1:255 32 0] 
r 1.015039815 _16_ RTR  --- 0 SB 20 [0 ffffffff 11 800] ------- [0:255 -1:255 32 0] 
r 1.015039830 _15_ RTR  --- 0 SB 20 [0 ffffffff 11 800] ------- [0:255 -1:255 32 0] 
s 1.250000000 _0_ RTR  --- 0 SB 20 [0 0 0 0] ------- [0:255 -1:255 32 0] 
r 1.250724186 _1_ RTR  --- 0 SB 20 [0 ffffffff 0 800] ------- [0:255 -1:255 32 0] 
r 1.250724186 _2_ RTR  --- 0 SB 20 [0 ffffffff 0 800] ------- [0:255 -1:255 32 0] 
s 1.500000000 _0_ RTR  --- 0 SB 20 [0 0 0 0] ------- [0:255 -1:255 32 0] 
r 1.500804186 _1_ RTR  --- 0 SB 20 [0 ffffffff 0 800] ------- [0:255 -1:255 32 0] 
s 1.500804186 _1_ RTR  --- 0 SB 20 [0 0 0 0] ------- [1:255 -1:255 32 0] 
r 1.500804186 _2_ RTR  --- 0 SB 20 [0 ffffffff 0 800] ------- [0:255 -1:255 32 0] 
s 1.500804186 _2_ RTR  --- 0 SB 20 [0 0 0 0] ------- [2:255 -1:255 32 0] 
r 1.501888353 _2_ RTR  --- 0 SB 20 [0 ffffffff 1 800] ------- [1:255 -1:255 32 0] 
f 1.501888353 _2_ RTR  --- 0 SB 20 [0 ffffffff 1 800] ------- [1:255 -1:255 32 0] 
r 1.501888353 _4_ RTR  --- 0 SB 20 [0 ffffffff 1 800] ------- [1:255 -1:255 32 0] 
r 1.501888373 _0_ RTR  --- 0 SB 20 [0 ffffffff 1 800] ------- [1:255 -1:255 32 0] 
r 1.501888422 _3_ RTR  --- 0 SB 20 [0 ffffffff 1 800] ------- [1:255 -1:255 32 0] 
r 1.501888422 _5_ RTR  --- 0 SB 20 [0 ffffffff 1 800] ------- [1:255 -1:255 32 0] 
r 1.502602520 _1_ RTR  --- 0 SB 20 [0 ffffffff 2 800] ------- [2:255 -1:255 32 0] 
f 1.502602520 _1_ RTR  --- 0 SB 20 [0 ffffffff 2 800] ------- [2:255 -1:255 32 0] 
r 1.502602520 _5_ RTR  --- 0 SB 20 [0 ffffffff 2 800] ------- [2:255 -1:255 32 0] 
f 1.502602520 _5_ RTR  --- 0 SB 20 [0 ffffffff 2 800] ------- [2:255 -1:255 32 0] 
r 1.502602539 _0_ RTR  --- 0 SB 20 [0 ffffffff 2 800] ------- [2:255 -1:255 32 0] 
r 1.502602589 _4_ RTR  --- 0 SB 20 [0 ffffffff 2 800] ------- [2:255 -1:255 32 0] 
f 1.502602589 _4_ RTR  --- 0 SB 20 [0 ffffffff 2 800] ------- [2:255 -1:255 32 0] 
r 1.502602589 _6_ RTR  --- 0 SB 20 [0 ffffffff 2 800] ------- [2:255 -1:255 32 0] 
r 1.503456520 _1_ RTR  --- 0 SB 20 [0 ffffffff 2 800] ------- [1:255 -1:255 32 0] 
s 1.503456520 _1_ RTR  --- 0 SB 20 [0 ffffffff 2 800] ------- [1:255 -1:255 32 0] 
r 1.503456520 _5_ RTR  --- 0 SB 20 [0 ffffffff 2 800] ------- [1:255 -1:255 32 0] 
r 1.503456539 _0_ RTR  --- 0 SB 20 [0 ffffffff 2 800] ------- [1:255 -1:255 32 0] 
r 1.503456589 _4_ RTR  --- 0 SB 20 [0 ffffffff 2 800] ------- [1:255 -1:255 32 0] 
r 1.503456589 _6_ RTR  --- 0 SB 20 [0 ffffffff 2 800] ------- [1:255 -1:255 32 0] 
f 1.503456589 _6_ RTR  --- 0 SB 20 [0 ffffffff 2 800] ------- [1:255 -1:255 32 0] 
r 1.504270686 _2_ RTR  --- 0 SB 20 [0 ffffffff 1 800] ------- [2:255 -1:255 32 0] 
s 1.504270686 _2_ RTR  --- 0 SB 20 [0 ffffffff 1 800] ------- [2:255 -1:255 32 0] 
r 1.504270686 _4_ RTR  --- 0 SB 20 [0 ffffffff 1 800] ------- [2:255 -1:255 32 0] 
r 1.504270706 _0_ RTR  --- 0 SB 20 [0 ffffffff 1 800] ------- [2:255 -1:255 32 0] 
r 1.504270755 _3_ RTR  --- 0 SB 20 [0 ffffffff 1 800] ------- [2:255 -1:255 32 0] 
f 1.504270755 _3_ RTR  --- 0 SB 20 [0 ffffffff 1 800] ------- [2:255 -1:255 32 0] 
r 1.504270755 _5_ RTR  --- 0 SB 20 [0 ffffffff 1 800] ------- [2:255 -1:255 32 0] 
r 1.504944686 _2_ RTR  --- 0 SB 20 [0 ffffffff 1 800] ------- [1:255 -1:255 32 0] 
r 1.504944686 _4_ RTR  --- 0 SB 20 [0 ffffffff 1 800] ------- [1:255 -1:255 32 0] 
r 1.504944706 _0_ RTR  --- 0 SB 20 [0 ffffffff 1 800] ------- [1:255 -1:255 32 0] 
r 1.504944755 _3_ RTR  --- 0 SB 20 [0 ffffffff 1 800] ------- [1:255 -1:255 32 0] 
r 1.504944755 _5_ RTR  --- 0 SB 20 [0 ffffffff 1 800] ------- [1:255 -1:255 32 0] 
r 1.505738922 _4_ RTR  --- 0 SB 20 [0 ffffffff 5 800] ------- [2:255 -1:255 32 0] 
r 1.505738922 _2_ RTR  --- 0 SB 20 [0 ffffffff 5 800] ------- [2:255 -1:255 32 0] 
r 1.505738922 _6_ RTR  --- 0 SB 20 [0 ffffffff 5 800] ------- [2:255 -1:255 32 0] 
r 1.505738922 _9_ RTR  --- 0 SB 20 [0 ffffffff 5 800] ------- [2:255 -1:255 32 0] 
r 1.505738991 _1_ RTR  --- 0 SB 20 [0 ffffffff 5 800] ------- [2:255 -1:255 32 0] 
r 1.505738991 _8_ RTR  --- 0 SB 20 [0 ffffffff 5 800] ------- [2:255 -1:255 32 0] 
r 1.505738991 _10_ RTR  --- 0 SB 20 [0 ffffffff 5 800] ------- [2:255 -1:255 32 0] 
r 1.506473158 _7_ RTR  --- 0 SB 20 [0 ffffffff 4 800] ------- [2:255 -1:255 32 0] 
r 1.507651422 _5_ RTR  --- 0 SB 20 [0 ffffffff 6 800] ------- [1:255 -1:255 32 0] 
r 1.507651422 _10_ RTR  --- 0 SB 20 [0 ffffffff 6 800] ------- [1:255 -1:255 32 0] 
f 1.507651422 _10_ RTR  --- 0 SB 20 [0 ffffffff 6 800] ------- [1:255 -1:255 32 0] 
r 1.507651491 _2_ RTR  --- 0 SB 20 [0 ffffffff 6 800] ------- [1:255 -1:255 32 0] 
r 1.507651491 _9_ RTR  --- 0 SB 20 [0 ffffffff 6 800] ------- [1:255 -1:255 32 0] 
f 1.507651491 _9_ RTR  --- 0 SB 20 [0 ffffffff 6 800] ------- [1:255 -1:255 32 0] 
r 1.508775658 _8_ RTR  --- 0 SB 20 [0 ffffffff 9 800] ------- [1:255 -1:255 32 0] 
f 1.508775658 _8_ RTR  --- 0 SB 20 [0 ffffffff 9 800] ------- [1:255 -1:255 32 0] 
r 1.508775658 _5_ RTR  --- 0 SB 20 [0 ffffffff 9 800] ------- [1:255 -1:255 32 0] 
r 1.508775658 _10_ RTR  --- 0 SB 20 [0 ffffffff 9 800] ------- [1:255 -1:255 32 0] 
r 1.508775658 _13_ RTR  --- 0 SB 20 [0 ffffffff 9 800] ------- [1:255 -1:255 32 0] 
r 1.508775727 _6_ RTR  --- 0 SB 20 [0 ffffffff 9 800] ------- [1:255 -1:255 32 0] 
r 1.508775727 _4_ RTR  --- 0 SB 20 [0 ffffffff 9 800] ------- [1:255 -1:255 32 0] 
r 1.508775727 _12_ RTR  --- 0 SB 20 [0 ffffffff 9 800] ------- [1:255 -1:255 32 0] 
r 1.508775727 _14_ RTR  --- 0 SB 20 [0 ffffffff 9 800] ------- [1:255 -1:255 32 0] 
r 1.509489824 _9_ RTR  --- 0 SB 20 [0 ffffffff a 800] ------- [1:255 -1:255 32 0] 
r 1.509489824 _6_ RTR  --- 0 SB 20 [0 ffffffff a 800] ------- [1:255 -1:255 32 0] 
r 1.509489824 _14_ RTR  --- 0 SB 20 [0 ffffffff a 800] ------- [1:255 -1:255 32 0] 
r 1.509489893 _5_ RTR  --- 0 SB 20 [0 ffffffff a 800] ------- [1:255 -1:255 32 0] 
r 1.509489893 _13_ RTR  --- 0 SB 20 [0 ffffffff a 800] ------- [1:255 -1:255 32 0] 
r 1.510588158 _7_ RTR  --- 0 SB 20 [0 ffffffff 8 800] ------- [1:255 -1:255 32 0] 
f 1.510588158 _7_ RTR  --- 0 SB 20 [0 ffffffff 8 800] ------- [1:255 -1:255 32 0] 
r 1.510588158 _4_ RTR  --- 0 SB 20 [0 ffffffff 8 800] ------- [1:255 -1:255 32 0] 
r 1.510588158 _9_ RTR  --- 0 SB 20 [0 ffffffff 8 800] ------- [1:255 -1:255 32 0] 
r 1.510588158 _12_ RTR  --- 0 SB 20 [0 ffffffff 8 800] ------- [1:255 -1:255 32 0] 
r 1.510588227 _5_ RTR  --- 0 SB 20 [0 ffffffff 8 800] ------- [1:255 -1:255 32 0] 
r 1.510588227 _3_ RTR  --- 0 SB 20 [0 ffffffff 8 800] ------- [1:255 -1:255 32 0] 
r 1.510588227 _11_ RTR  --- 0 SB 20 [0 ffffffff 8 800] ------- [1:255 -1:255 32 0] 
r 1.510588227 _13_ RTR  --- 0 SB 20 [0 ffffffff 8 800] ------- [1:255 -1:255 32 0] 
r 1.511322393 _4_ RTR  --- 0 SB 20 [0 ffffffff 3 800] ------- [2:255 -1:255 32 0] 
r 1.511322393 _7_ RTR  --- 0 SB 20 [0 ffffffff 3 800] ------- [2:255 -1:255 32 0] 
r 1.511322462 _1_ RTR  --- 0 SB 20 [0 ffffffff 3 800] ------- [2:255 -1:255 32 0] 
r 1.511322462 _8_ RTR  --- 0 SB 20 [0 ffffffff 3 800] ------- [2:255 -1:255 32 0] 
r 1.512196560 _3_ RTR  --- 0 SB 20 [0 ffffffff 7 800] ------- [1:255 -1:255 32 0] 
r 1.512196560 _8_ RTR  --- 0 SB 20 [0 ffffffff 7 800] ------- [1:255 -1:255 32 0] 
r 1.512196560 _11_ RTR  --- 0 SB 20 [0 ffffffff 7 800] ------- [1:255 -1:255 32 0] 
r 1.512196629 _4_ RTR  --- 0 SB 20 [0 ffffffff 7 800] ------- [1:255 -1:255 32 0] 
r 1.512196629 _12_ RTR  --- 0 SB 20 [0 ffffffff 7 800] ------- [1:255 -1:255 32 0] 
s 1.750000000 _0_ RTR  --- 0 SB 20 [0 0 0 0] ------- [0:255 -1:255 32 0] 
r 1.751044186 _1_ RTR  --- 0 SB 20 [0 ffffffff 0 800] ------- [0:255 -1:255 32 0] 
r 1.751044186 _2_ RTR  --- 0 SB 20 [0 ffffffff 0 800] ------- [0:255 -1:255 32 0] 
M 2.00000 3 (100.00, 250.00, 0.00), (100.00, 50.00), 16.60
M 2.00000 4 (100.00, 200.00, 0.00), (100.00, 300.00), 16.60
M 2.00000 7 (150.00, 250.00, 0.00), (150.00, 300.00), 16.60
M 2.00000 8 (150.00, 200.00, 0.00), (150.00, 50.00), 16.60
M 2.00000 11 (200.00, 250.00, 0.00), (200.00, 50.00), 16.60
M 2.00000 12 (200.00, 200.00, 0.00), (200.00, 300.00), 16.60
s 2.000000000 _0_ RTR  --- 0 SB 20 [0 0 0 0] ------- [0:255 -1:255 32 0] 
r 2.001024186 _1_ RTR  --- 0 SB 20 [0 ffffffff 0 800] ------- [0:255 -1:255 32 0] 
s 2.001024186 _1_ RTR  --- 0 SB 20 [0 0 0 0] ------- [1:255 -1:255 32 0] 
r 2.001024186 _2_ RTR  --- 0 SB 20 [0 ffffffff 0 800] ------- [0:255 -1:255 32 0] 
s 2.001024186 _2_ RTR  --- 0 SB 20 [0 0 0 0] ------- [2:255 -1:255 32 0] 
r 2.001848353 _1_ RTR  --- 0 SB 20 [0 ffffffff 2 800] ------- [2:255 -1:255 32 0] 
f 2.001848353 _1_ RTR  --- 0 SB 20 [0 ffffffff 2 800] ------- [2:255 -1:255 32 0] 
r 2.001848353 _5_ RTR  --- 0 SB 20 [0 ffffffff 2 800] ------- [2:255 -1:255 32 0] 
r 2.001848373 _0_ RTR  --- 0 SB 20 [0 ffffffff 2 800] ------- [2:255 -1:255 32 0] 
r 2.001848422 _6_ RTR  --- 0 SB 20 [0 ffffffff 2 800] ------- [2:255 -1:255 32 0] 
r 2.001848422 _4_ RTR  --- 0 SB 20 [0 ffffffff 2 800] ------- [2:255 -1:255 32 0] 
r 2.002542520 _2_ RTR  --- 0 SB 20 [0 ffffffff 1 800] ------- [1:255 -1:255 32 0] 
f 2.002542520 _2_ RTR  --- 0 SB 20 [0 ffffffff 1 800] ------- [1:255 -1:255 32 0] 
r 2.002542520 _4_ RTR  --- 0 SB 20 [0 ffffffff 1 800] ------- [1:255 -1:255 32 0] 
f 2.002542520 _4_ RTR  --- 0 SB 20 [0 ffffffff 1 800] ------- [1:255 -1:255 32 0] 
r 2.002542539 _0_ RTR  --- 0 SB 20 [0 ffffffff 1 800] ------- [1:255 -1:255 32 0] 
r 2.002542589 _3_ RTR  --- 0 SB 20 [0 ffffffff 1 800] ------- [1:255 -1:255 32 0] 
r 2.002542589 _5_ RTR  --- 0 SB 20 [0 ffffffff 1 800] ------- [1:255 -1:255 32 0] 
f 2.002542589 _5_ RTR  --- 0 SB 20 [0 ffffffff 1 800] ------- [1:255 -1:255 32 0] 
r 2.003346686 _1_ RTR  --- 0 SB 20 [0 ffffffff 2 800] ------- [1:255 -1:255 32 0] 
s 2.003346686 _1_ RTR  --- 0 SB 20 [0 ffffffff 2 800] ------- [1:255 -1:255 32 0] 
r 2.003346686 _5_ RTR  --- 0 SB 20 [0 ffffffff 2 800] ------- [1:255 -1:255 32 0] 
r 2.003346706 _0_ RTR  --- 0 SB 20 [0 ffffffff 2 800] ------- [1:255 -1:255 32 0] 
r 2.003346755 _6_ RTR  --- 0 SB 20 [0 ffffffff 2 800] ------- [1:255 -1:255 32 0] 
f 2.003346755 _6_ RTR  --- 0 SB 20 [0 ffffffff 2 800] ------- [1:255 -1:255 32 0] 
r 2.003346755 _4_ RTR  --- 0 SB 20 [0 ffffffff 2 800] ------- [1:255 -1:255 32 0] 
r 2.004210922 _5_ RTR  --- 0 SB 20 [0 ffffffff 6 800] ------- [1:255 -1:255 32 0] 
r 2.004210922 _10_ RTR  --- 0 SB 20 [0 ffffffff 6 800] ------- [1:255 -1:255 32 0] 
r 2.004210991 _2_ RTR  --- 0 SB 20 [0 ffffffff 6 800] ------- [1:255 -1:255 32 0] 
r 2.004210991 _9_ RTR  --- 0 SB 20 [0 ffffffff 6 800] ------- [1:255 -1:255 32 0] 
r 2.005105089 _2_ RTR  --- 0 SB 20 [0 ffffffff 5 800] ------- [1:255 -1:255 32 0] 
r 2.005105089 _6_ RTR  --- 0 SB 20 [0 ffffffff 5 800] ------- [1:255 -1:255 32 0] 
r 2.005105089 _9_ RTR  --- 0 SB 20 [0 ffffffff 5 800] ------- [1:255 -1:255 32 0] 
r 2.005105089 _4_ RTR  --- 0 SB 20 [0 ffffffff 5 800] ------- [1:255 -1:255 32 0] 
r 2.005105158 _8_ RTR  --- 0 SB 20 [0 ffffffff 5 800] ------- [1:255 -1:255 32 0] 
r 2.005105158 _1_ RTR  --- 0 SB 20 [0 ffffffff 5 800] ------- [1:255 -1:255 32 0] 
r 2.005105158 _10_ RTR  --- 0 SB 20 [0 ffffffff 5 800] ------- [1:255 -1:255 32 0] 
r 2.005799255 _3_ RTR  --- 0 SB 20 [0 ffffffff 4 800] ------- [1:255 -1:255 32 0] 
r 2.005799256 _1_ RTR  --- 0 SB 20 [0 ffffffff 4 800] ------- [1:255 -1:255 32 0] 
r 2.005799256 _8_ RTR  --- 0 SB 20 [0 ffffffff 4 800] ------- [1:255 -1:255 32 0] 
r 2.005799256 _5_ RTR  --- 0 SB 20 [0 ffffffff 4 800] ------- [1:255 -1:255 32 0] 
r 2.005799325 _7_ RTR  --- 0 SB 20 [0 ffffffff 4 800] ------- [1:255 -1:255 32 0] 
r 2.005799325 _2_ RTR  --- 0 SB 20 [0 ffffffff 4 800] ------- [1:255 -1:255 32 0] 
r 2.005799325 _9_ RTR  --- 0 SB 20 [0 ffffffff 4 800] ------- [1:255 -1:255 32 0] 
r 2.006633422 _2_ RTR  --- 0 SB 20 [0 ffffffff 1 800] ------- [2:255 -1:255 32 0] 
s 2.006633422 _2_ RTR  --- 0 SB 20 [0 ffffffff 1 800] ------- [2:255 -1:255 32 0] 
r 2.006633422 _4_ RTR  --- 0 SB 20 [0 ffffffff 1 800] ------- [2:255 -1:255 32 0] 
r 2.006633442 _0_ RTR  --- 0 SB 20 [0 ffffffff 1 800] ------- [2:255 -1:255 32 0] 
r 2.006633491 _3_ RTR  --- 0 SB 20 [0 ffffffff 1 800] ------- [2:255 -1:255 32 0] 
f 2.006633491 _3_ RTR  --- 0 SB 20 [0 ffffffff 1 800] ------- [2:255 -1:255 32 0] 
r 2.006633491 _5_ RTR  --- 0 SB 20 [0 ffffffff 1 800] ------- [2:255 -1:255 32 0] 
r 2.007377657 _4_ RTR  --- 0 SB 20 [0 ffffffff 3 800] ------- [2:255 -1:255 32 0] 
r 2.007377658 _7_ RTR  --- 0 SB 20 [0 ffffffff 3 800] ------- [2:255 -1:255 32 0] 
f 2.007377658 _7_ RTR  --- 0 SB 20 [0 ffffffff 3 800] ------- [2:255 -1:255 32 0] 
r 2.007377727 _1_ RTR  --- 0 SB 20 [0 ffffffff 3 800] ------- [2:255 -1:255 32 0] 
r 2.007377727 _8_ RTR  --- 0 SB 20 [0 ffffffff 3 800] ------- [2:255 -1:255 32 0] 
f 2.007377727 _8_ RTR  --- 0 SB 20 [0 ffffffff 3 800] ------- [2:255 -1:255 32 0] 
r 2.008451893 _2_ RTR  --- 0 SB 20 [0 ffffffff 1 800] ------- [1:255 -1:255 32 0] 
r 2.008451893 _4_ RTR  --- 0 SB 20 [0 ffffffff 1 800] ------- [1:255 -1:255 32 0] 
r 2.008451913 _0_ RTR  --- 0 SB 20 [0 ffffffff 1 800] ------- [1:255 -1:255 32 0] 
r 2.008451962 _3_ RTR  --- 0 SB 20 [0 ffffffff 1 800] ------- [1:255 -1:255 32 0] 
r 2.008451962 _5_ RTR  --- 0 SB 20 [0 ffffffff 1 800] ------- [1:255 -1:255 32 0] 
r 2.009166060 _1_ RTR  --- 0 SB 20 [0 ffffffff 2 800] ------- [2:255 -1:255 32 0] 
r 2.009166060 _5_ RTR  --- 0 SB 20 [0 ffffffff 2 800] ------- [2:255 -1:255 32 0] 
r 2.009166080 _0_ RTR  --- 0 SB 20 [0 ffffffff 2 800] ------- [2:255 -1:255 32 0] 
r 2.009166129 _6_ RTR  --- 0 SB 20 [0 ffffffff 2 800] ------- [2:255 -1:255 32 0] 
r 2.009166129 _4_ RTR  --- 0 SB 20 [0 ffffffff 2 800] ------- [2:255 -1:255 32 0] 
r 2.010264432 _9_ RTR  --- 0 SB 20 [0 ffffffff 8 800] ------- [2:255 -1:255 32 0] 
f 2.010264432 _9_ RTR  --- 0 SB 20 [0 ffffffff 8 800] ------- [2:255 -1:255 32 0] 
r 2.010264432 _4_ RTR  --- 0 SB 20 [0 ffffffff 8 800] ------- [2:255 -1:255 32 0] 
r 2.010264432 _12_ RTR  --- 0 SB 20 [0 ffffffff 8 800] ------- [2:255 -1:255 32 0] 
r 2.010264433 _7_ RTR  --- 0 SB 20 [0 ffffffff 8 800] ------- [2:255 -1:255 32 0] 
r 2.010264501 _5_ RTR  --- 0 SB 20 [0 ffffffff 8 800] ------- [2:255 -1:255 32 0] 
r 2.010264501 _13_ RTR  --- 0 SB 20 [0 ffffffff 8 800] ------- [2:255 -1:255 32 0] 
r 2.010264501 _3_ RTR  --- 0 SB 20 [0 ffffffff 8 800] ------- [2:255 -1:255 32 0] 
r 2.010264501 _11_ RTR  --- 0 SB 20 [0 ffffffff 8 800] ------- [2:255 -1:255 32 0] 
r 2.010988598 _8_ RTR  --- 0 SB 20 [0 ffffffff 9 800] ------- [2:255 -1:255 32 0] 
r 2.010988598 _5_ RTR  --- 0 SB 20 [0 ffffffff 9 800] ------- [2:255 -1:255 32 0] 
r 2.010988598 _10_ RTR  --- 0 SB 20 [0 ffffffff 9 800] ------- [2:255 -1:255 32 0] 
f 2.010988598 _10_ RTR  --- 0 SB 20 [0 ffffffff 9 800] ------- [2:255 -1:255 32 0] 
r 2.010988598 _13_ RTR  --- 0 SB 20 [0 ffffffff 9 800] ------- [2:255 -1:255 32 0] 
r 2.010988667 _6_ RTR  --- 0 SB 20 [0 ffffffff 9 800] ------- [2:255 -1:255 32 0] 
r 2.010988667 _14_ RTR  --- 0 SB 20 [0 ffffffff 9 800] ------- [2:255 -1:255 32 0] 
r 2.010988668 _4_ RTR  --- 0 SB 20 [0 ffffffff 9 800] ------- [2:255 -1:255 32 0] 
r 2.010988668 _12_ RTR  --- 0 SB 20 [0 ffffffff 9 800] ------- [2:255 -1:255 32 0] 
r 2.011912765 _9_ RTR  --- 0 SB 20 [0 ffffffff a 800] ------- [2:255 -1:255 32 0] 
r 2.011912765 _6_ RTR  --- 0 SB 20 [0 ffffffff a 800] ------- [2:255 -1:255 32 0] 
r 2.011912765 _14_ RTR  --- 0 SB 20 [0 ffffffff a 800] ------- [2:255 -1:255 32 0] 
r 2.011912834 _5_ RTR  --- 0 SB 20 [0 ffffffff a 800] ------- [2:255 -1:255 32 0] 
r 2.011912834 _13_ RTR  --- 0 SB 20 [0 ffffffff a 800] ------- [2:255 -1:255 32 0] 
r 2.013051266 _3_ RTR  --- 0 SB 20 [0 ffffffff 7 800] ------- [2:255 -1:255 32 0] 
r 2.013051266 _11_ RTR  --- 0 SB 20 [0 ffffffff 7 800] ------- [2:255 -1:255 32 0] 
r 2.013051267 _8_ RTR  --- 0 SB 20 [0 ffffffff 7 800] ------- [2:255 -1:255 32 0] 
r 2.013051335 _4_ RTR  --- 0 SB 20 [0 ffffffff 7 800] ------- [2:255 -1:255 32 0] 
r 2.013051335 _12_ RTR  --- 0 SB 20 [0 ffffffff 7 800] ------- [2:255 -1:255 32 0] 
s 2.250000000 _0_ RTR  --- 0 SB 20 [0 0 0 0] ------- [0:255 -1:255 32 0] 
r 2.250944186 _1_ RTR  --- 0 SB 20 [0 ffffffff 0 800] ------- [0:255 -1:255 32 0] 
r 2.250944186 _2_ RTR  --- 0 SB 20 [0 ffffffff 0 800] ------- [0:255 -1:255 32 0] 
s 2.500000000 _0_ RTR  --- 0 SB 20 [0 0 0 0] ------- [0:255 -1:255 32 0] 
r 2.500744186 _1_ RTR  --- 0 SB 20 [0 ffffffff 0 800] ------- [0:255 -1:255 32 0] 
s 2.500744186 _1_ RTR  --- 0 SB 20 [0 0 0 0] ------- [1:255 -1:255 32 0] 
r 2.500744186 _2_ RTR  --- 0 SB 20 [0 ffffffff 0 800] ------- [0:255 -1:255 32 0] 
s 2.500744186 _2_ RTR  --- 0 SB 20 [0 0 0 0] ------- [2:255 -1:255 32 0] 
r 2.501648353 _1_ RTR  --- 0 SB 20 [0 ffffffff 2 800] ------- [2:255 -1:255 32 0] 
f 2.501648353 _1_ RTR  --- 0 SB 20 [0 ffffffff 2 800] ------- [2:255 -1:255 32 0] 
r 2.501648353 _5_ RTR  --- 0 SB 20 [0 ffffffff 2 800] ------- [2:255 -1:255 32 0] 
r 2.501648373 _0_ RTR  --- 0 SB 20 [0 ffffffff 2 800] ------- [2:255 -1:255 32 0] 
r 2.501648422 _6_ RTR  --- 0 SB 20 [0 ffffffff 2 800] ------- [2:255 -1:255 32 0] 
r 2.502402520 _2_ RTR  --- 0 SB 20 [0 ffffffff 1 800] ------- [1:255 -1:255 32 0] 
f 2.502402520 _2_ RTR  --- 0 SB 20 [0 ffffffff 1 800] ------- [1:255 -1:255 32 0] 
r 2.502402522 _4_ RTR  --- 0 SB 20 [0 ffffffff 1 800] ------- [1:255 -1:255 32 0] 
r 2.502402539 _0_ RTR  --- 0 SB 20 [0 ffffffff 1 800] ------- [1:255 -1:255 32 0] 
r 2.502402570 _3_ RTR  --- 0 SB 20 [0 ffffffff 1 800] ------- [1:255 -1:255 32 0] 
r 2.502402589 _5_ RTR  --- 0 SB 20 [0 ffffffff 1 800] ------- [1:255 -1:255 32 0] 
f 2.502402589 _5_ RTR  --- 0 SB 20 [0 ffffffff 1 800] ------- [1:255 -1:255 32 0] 
r 2.503136686 _1_ RTR  --- 0 SB 20 [0 ffffffff 2 800] ------- [1:255 -1:255 32 0] 
s 2.503136686 _1_ RTR  --- 0 SB 20 [0 ffffffff 2 800] ------- [1:255 -1:255 32 0] 
r 2.503136686 _5_ RTR  --- 0 SB 20 [0 ffffffff 2 800] ------- [1:255 -1:255 32 0] 
r 2.503136706 _0_ RTR  --- 0 SB 20 [0 ffffffff 2 800] ------- [1:255 -1:255 32 0] 
r 2.503136755 _6_ RTR  --- 0 SB 20 [0 ffffffff 2 800] ------- [1:255 -1:255 32 0] 
f 2.503136755 _6_ RTR  --- 0 SB 20 [0 ffffffff 2 800] ------- [1:255 -1:255 32 0] 
r 2.504030853 _2_ RTR  --- 0 SB 20 [0 ffffffff 1 800] ------- [2:255 -1:255 32 0] 
s 2.504030853 _2_ RTR  --- 0 SB 20 [0 ffffffff 1 800] ------- [2:255 -1:255 32 0] 
r 2.504030855 _4_ RTR  --- 0 SB 20 [0 ffffffff 1 800] ------- [2:255 -1:255 32 0] 
f 2.504030855 _4_ RTR  --- 0 SB 20 [0 ffffffff 1 800] ------- [2:255 -1:255 32 0] 
r 2.504030873 _0_ RTR  --- 0 SB 20 [0 ffffffff 1 800] ------- [2:255 -1:255 32 0] 
r 2.504030903 _3_ RTR  --- 0 SB 20 [0 ffffffff 1 800] ------- [2:255 -1:255 32 0] 
f 2.504030903 _3_ RTR  --- 0 SB 20 [0 ffffffff 1 800] ------- [2:255 -1:255 32 0] 
r 2.504030922 _5_ RTR  --- 0 SB 20 [0 ffffffff 1 800] ------- [2:255 -1:255 32 0] 
r 2.504854966 _3_ RTR  --- 0 SB 20 [0 ffffffff 4 800] ------- [2:255 -1:255 32 0] 
r 2.504855024 _1_ RTR  --- 0 SB 20 [0 ffffffff 4 800] ------- [2:255 -1:255 32 0] 
r 2.504855031 _8_ RTR  --- 0 SB 20 [0 ffffffff 4 800] ------- [2:255 -1:255 32 0] 
r 2.504855050 _5_ RTR  --- 0 SB 20 [0 ffffffff 4 800] ------- [2:255 -1:255 32 0] 
r 2.504855091 _7_ RTR  --- 0 SB 20 [0 ffffffff 4 800] ------- [2:255 -1:255 32 0] 
r 2.505569191 _2_ RTR  --- 0 SB 20 [0 ffffffff 1 800] ------- [1:255 -1:255 32 0] 
r 2.505569193 _4_ RTR  --- 0 SB 20 [0 ffffffff 1 800] ------- [1:255 -1:255 32 0] 
r 2.505569211 _0_ RTR  --- 0 SB 20 [0 ffffffff 1 800] ------- [1:255 -1:255 32 0] 
r 2.505569241 _3_ RTR  --- 0 SB 20 [0 ffffffff 1 800] ------- [1:255 -1:255 32 0] 
r 2.505569260 _5_ RTR  --- 0 SB 20 [0 ffffffff 1 800] ------- [1:255 -1:255 32 0] 
r 2.506283427 _2_ RTR  --- 0 SB 20 [0 ffffffff 5 800] ------- [1:255 -1:255 32 0] 
r 2.506283427 _6_ RTR  --- 0 SB 20 [0 ffffffff 5 800] ------- [1:255 -1:255 32 0] 
r 2.506283427 _9_ RTR  --- 0 SB 20 [0 ffffffff 5 800] ------- [1:255 -1:255 32 0] 
r 2.506283455 _4_ RTR  --- 0 SB 20 [0 ffffffff 5 800] ------- [1:255 -1:255 32 0] 
r 2.506283477 _8_ RTR  --- 0 SB 20 [0 ffffffff 5 800] ------- [1:255 -1:255 32 0] 
f 2.506283477 _8_ RTR  --- 0 SB 20 [0 ffffffff 5 800] ------- [1:255 -1:255 32 0] 
r 2.506283496 _1_ RTR  --- 0 SB 20 [0 ffffffff 5 800] ------- [1:255 -1:255 32 0] 
r 2.506283496 _10_ RTR  --- 0 SB 20 [0 ffffffff 5 800] ------- [1:255 -1:255 32 0] 
r 2.507037593 _5_ RTR  --- 0 SB 20 [0 ffffffff 6 800] ------- [1:255 -1:255 32 0] 
r 2.507037593 _10_ RTR  --- 0 SB 20 [0 ffffffff 6 800] ------- [1:255 -1:255 32 0] 
r 2.507037662 _2_ RTR  --- 0 SB 20 [0 ffffffff 6 800] ------- [1:255 -1:255 32 0] 
r 2.507037662 _9_ RTR  --- 0 SB 20 [0 ffffffff 6 800] ------- [1:255 -1:255 32 0] 
r 2.507931829 _1_ RTR  --- 0 SB 20 [0 ffffffff 2 800] ------- [2:255 -1:255 32 0] 
r 2.507931829 _5_ RTR  --- 0 SB 20 [0 ffffffff 2 800] ------- [2:255 -1:255 32 0] 
r 2.507931849 _0_ RTR  --- 0 SB 20 [0 ffffffff 2 800] ------- [2:255 -1:255 32 0] 
r 2.507931898 _6_ RTR  --- 0 SB 20 [0 ffffffff 2 800] ------- [2:255 -1:255 32 0] 
r 2.509250121 _4_ RTR  --- 0 SB 20 [0 ffffffff 3 800] ------- [2:255 -1:255 32 0] 
r 2.509250186 _7_ RTR  --- 0 SB 20 [0 ffffffff 3 800] ------- [2:255 -1:255 32 0] 
r 2.509250227 _1_ RTR  --- 0 SB 20 [0 ffffffff 3 800] ------- [2:255 -1:255 32 0] 
r 2.509250246 _8_ RTR  --- 0 SB 20 [0 ffffffff 3 800] ------- [2:255 -1:255 32 0] 
r 2.510044384 _9_ RTR  --- 0 SB 20 [0 ffffffff 8 800] ------- [1:255 -1:255 32 0] 
r 2.510044422 _4_ RTR  --- 0 SB 20 [0 ffffffff 8 800] ------- [1:255 -1:255 32 0] 