n -t * -s 0  -x 0 -y 175 -Z 0 -z 10  -v circle -c black
n -t * -s 1  -x 50 -y 200 -Z 0 -z 10  -v circle -c black
n -t * -s 2  -x 50 -y 150 -Z 0 -z 10  -v circle -c black
n -t * -s 3  -x 100 -y 250 -Z 0 -z 10  -v circle -c black
n -t * -s 4  -x 100 -y 200 -Z 0 -z 10  -v circle -c black
n -t * -s 5  -x 100 -y 150 -Z 0 -z 10  -v circle -c black
n -t * -s 6  -x 100 -y 100 -Z 0 -z 10  -v circle -c black
n -t * -s 7  -x 150 -y 250 -Z 0 -z 10  -v circle -c black
n -t * -s 8  -x 150 -y 200 -Z 0 -z 10  -v circle -c black
n -t * -s 9  -x 150 -y 150 -Z 0 -z 10  -v circle -c black
n -t * -s 10  -x 150 -y 100 -Z 0 -z 10  -v circle -c black
n -t * -s 11  -x 200 -y 250 -Z 0 -z 10  -v circle -c black
n -t * -s 12  -x 200 -y 200 -Z 0 -z 10  -v circle -c black
n -t * -s 13  -x 200 -y 150 -Z 0 -z 10  -v circle -c black
n -t * -s 14  -x 200 -y 100 -Z 0 -z 10  -v circle -c black
n -t * -s 15  -x 250 -y 200 -Z 0 -z 10  -v circle -c black
n -t * -s 16  -x 250 -y 150 -Z 0 -z 10  -v circle -c black
n -t * -s 17  -x 300 -y 170 -Z 0 -z 10  -v circle -c black
V -t * -v 1.0a5 -a 0
W -t * -x 500 -y 500
A -t * -n 1 -p 0 -o 0x7fffffff -c 30 -a 1
A -t * -h 1 -m 1073741823 -s 0
+ -t 1.000000000 -s 0 -d -1 -p SB -e 20 -c 2 -a 0 -i 0 -k RTR 
- -t 1.000000000 -s 0 -d -1 -p SB -e 20 -c 2 -a 0 -i 0 -k RTR
h -t 1.000000000 -s 0 -d -1 -p SB -e 20 -c 2 -a 0 -i 0 -k RTR
r -t 1.001224186 -s 1 -d -1 -p SB -e 20 -c 2 -a 0 -i 0 -k RTR
+ -t 1.001224186 -s 1 -d -1 -p SB -e 20 -c 2 -a 0 -i 0 -k RTR 
- -t 1.001224186 -s 1 -d -1 -p SB -e 20 -c 2 -a 0 -i 0 -k RTR
h -t 1.001224186 -s 1 -d -1 -p SB -e 20 -c 2 -a 0 -i 0 -k RTR
r -t 1.001224186 -s 2 -d -1 -p SB -e 20 -c 2 -a 0 -i 0 -k RTR
+ -t 1.001224186 -s 2 -d -1 -p SB -e 20 -c 2 -a 0 -i 0 -k RTR 
- -t 1.001224186 -s 2 -d -1 -p SB -e 20 -c 2 -a 0 -i 0 -k RTR
h -t 1.001224186 -s 2 -d -1 -p SB -e 20 -c 2 -a 0 -i 0 -k RTR
r -t 1.001988353 -s 1 -d -1 -p SB -e 20 -c 2 -a 0 -i 0 -k RTR
r -t 1.001988353 -s 5 -d -1 -p SB -e 20 -c 2 -a 0 -i 0 -k RTR
+ -t 1.001988353 -s 5 -d -1 -p SB -e 20 -c 2 -a 0 -i 0 -k RTR 
- -t 1.001988353 -s 5 -d -1 -p SB -e 20 -c 2 -a 0 -i 0 -k RTR
h -t 1.001988353 -s 5 -d -1 -p SB -e 20 -c 2 -a 0 -i 0 -k RTR
r -t 1.001988373 -s 0 -d -1 -p SB -e 20 -c 2 -a 0 -i 0 -k RTR
r -t 1.001988422 -s 4 -d -1 -p SB -e 20 -c 2 -a 0 -i 0 -k RTR
+ -t 1.001988422 -s 4 -d -1 -p SB -e 20 -c 2 -a 0 -i 0 -k RTR 
- -t 1.001988422 -s 4 -d -1 -p SB -e 20 -c 2 -a 0 -i 0 -k RTR
h -t 1.001988422 -s 4 -d -1 -p SB -e 20 -c 2 -a 0 -i 0 -k RTR
r -t 1.001988422 -s 6 -d -1 -p SB -e 20 -c 2 -a 0 -i 0 -k RTR
+ -t 1.001988422 -s 6 -d -1 -p SB -e 20 -c 2 -a 0 -i 0 -k RTR 
- -t 1.001988422 -s 6 -d -1 -p SB -e 20 -c 2 -a 0 -i 0 -k RTR
h -t 1.001988422 -s 6 -d -1 -p SB -e 20 -c 2 -a 0 -i 0 -k RTR
r -t 1.002952589 -s 3 -d -1 -p SB -e 20 -c 2 -a 0 -i 0 -k RTR
+ -t 1.002952589 -s 3 -d -1 -p SB -e 20 -c 2 -a 0 -i 0 -k RTR 
- -t 1.002952589 -s 3 -d -1 -p SB -e 20 -c 2 -a 0 -i 0 -k RTR
h -t 1.002952589 -s 3 -d -1 -p SB -e 20 -c 2 -a 0 -i 0 -k RTR
r -t 1.002952589 -s 1 -d -1 -p SB -e 20 -c 2 -a 0 -i 0 -k RTR
r -t 1.002952589 -s 5 -d -1 -p SB -e 20 -c 2 -a 0 -i 0 -k RTR
r -t 1.002952589 -s 8 -d -1 -p SB -e 20 -c 2 -a 0 -i 0 -k RTR
+ -t 1.002952589 -s 8 -d -1 -p SB -e 20 -c 2 -a 0 -i 0 -k RTR 
- -t 1.002952589 -s 8 -d -1 -p SB -e 20 -c 2 -a 0 -i 0 -k RTR
h -t 1.002952589 -s 8 -d -1 -p SB -e 20 -c 2 -a 0 -i 0 -k RTR
r -t 1.002952658 -s 2 -d -1 -p SB -e 20 -c 2 -a 0 -i 0 -k RTR
r -t 1.002952658 -s 7 -d -1 -p SB -e 20 -c 2 -a 0 -i 0 -k RTR
+ -t 1.002952658 -s 7 -d -1 -p SB -e 20 -c 2 -a 0 -i 0 -k RTR 
- -t 1.002952658 -s 7 -d -1 -p SB -e 20 -c 2 -a 0 -i 0 -k RTR
h -t 1.002952658 -s 7 -d -1 -p SB -e 20 -c 2 -a 0 -i 0 -k RTR
r -t 1.002952658 -s 9 -d -1 -p SB -e 20 -c 2 -a 0 -i 0 -k RTR
+ -t 1.002952658 -s 9 -d -1 -p SB -e 20 -c 2 -a 0 -i 0 -k RTR 
- -t 1.002952658 -s 9 -d -1 -p SB -e 20 -c 2 -a 0 -i 0 -k RTR
h -t 1.002952658 -s 9 -d -1 -p SB -e 20 -c 2 -a 0 -i 0 -k RTR
r -t 1.003736824 -s 8 -d -1 -p SB -e 20 -c 2 -a 0 -i 0 -k RTR
r -t 1.003736824 -s 5 -d -1 -p SB -e 20 -c 2 -a 0 -i 0 -k RTR
r -t 1.003736824 -s 10 -d -1 -p SB -e 20 -c 2 -a 0 -i 0 -k RTR
+ -t 1.003736824 -s 10 -d -1 -p SB -e 20 -c 2 -a 0 -i 0 -k RTR 
- -t 1.003736824 -s 10 -d -1 -p SB -e 20 -c 2 -a 0 -i 0 -k RTR
h -t 1.003736824 -s 10 -d -1 -p SB -e 20 -c 2 -a 0 -i 0 -k RTR
r -t 1.003736824 -s 13 -d -1 -p SB -e 20 -c 2 -a 0 -i 0 -k RTR
+ -t 1.003736824 -s 13 -d -1 -p SB -e 20 -c 2 -a 0 -i 0 -k RTR 
- -t 1.003736824 -s 13 -d -1 -p SB -e 20 -c 2 -a 0 -i 0 -k RTR
h -t 1.003736824 -s 13 -d -1 -p SB -e 20 -c 2 -a 0 -i 0 -k RTR
r -t 1.003736893 -s 6 -d -1 -p SB -e 20 -c 2 -a 0 -i 0 -k RTR
r -t 1.003736893 -s 4 -d -1 -p SB -e 20 -c 2 -a 0 -i 0 -k RTR
r -t 1.003736893 -s 12 -d -1 -p SB -e 20 -c 2 -a 0 -i 0 -k RTR
+ -t 1.003736893 -s 12 -d -1 -p SB -e 20 -c 2 -a 0 -i 0 -k RTR 
- -t 1.003736893 -s 12 -d -1 -p SB -e 20 -c 2 -a 0 -i 0 -k RTR
h -t 1.003736893 -s 12 -d -1 -p SB -e 20 -c 2 -a 0 -i 0 -k RTR
r -t 1.003736893 -s 14 -d -1 -p SB -e 20 -c 2 -a 0 -i 0 -k RTR
+ -t 1.003736893 -s 14 -d -1 -p SB -e 20 -c 2 -a 0 -i 0 -k RTR 
- -t 1.003736893 -s 14 -d -1 -p SB -e 20 -c 2 -a 0 -i 0 -k RTR
h -t 1.003736893 -s 14 -d -1 -p SB -e 20 -c 2 -a 0 -i 0 -k RTR
r -t 1.004520991 -s 12 -d -1 -p SB -e 20 -c 2 -a 0 -i 0 -k RTR
r -t 1.004520991 -s 9 -d -1 -p SB -e 20 -c 2 -a 0 -i 0 -k RTR
r -t 1.004520991 -s 14 -d -1 -p SB -e 20 -c 2 -a 0 -i 0 -k RTR
r -t 1.004520991 -s 16 -d -1 -p SB -e 20 -c 2 -a 0 -i 0 -k RTR
+ -t 1.004520991 -s 16 -d -1 -p SB -e 20 -c 2 -a 0 -i 0 -k RTR 
- -t 1.004520991 -s 16 -d -1 -p SB -e 20 -c 2 -a 0 -i 0 -k RTR
h -t 1.004520991 -s 16 -d -1 -p SB -e 20 -c 2 -a 0 -i 0 -k RTR
r -t 1.004521060 -s 10 -d -1 -p SB -e 20 -c 2 -a 0 -i 0 -k RTR
r -t 1.004521060 -s 8 -d -1 -p SB -e 20 -c 2 -a 0 -i 0 -k RTR
r -t 1.004521060 -s 15 -d -1 -p SB -e 20 -c 2 -a 0 -i 0 -k RTR
+ -t 1.004521060 -s 15 -d -1 -p SB -e 20 -c 2 -a 0 -i 0 -k RTR 
- -t 1.004521060 -s 15 -d -1 -p SB -e 20 -c 2 -a 0 -i 0 -k RTR
h -t 1.004521060 -s 15 -d -1 -p SB -e 20 -c 2 -a 0 -i 0 -k RTR
r -t 1.005355158 -s 13 -d -1 -p SB -e 20 -c 2 -a 0 -i 0 -k RTR
r -t 1.005355158 -s 10 -d -1 -p SB -e 20 -c 2 -a 0 -i 0 -k RTR
r -t 1.005355227 -s 9 -d -1 -p SB -e 20 -c 2 -a 0 -i 0 -k RTR
r -t 1.005355227 -s 16 -d -1 -p SB -e 20 -c 2 -a 0 -i 0 -k RTR
r -t 1.006269324 -s 9 -d -1 -p SB -e 20 -c 2 -a 0 -i 0 -k RTR
r -t 1.006269324 -s 6 -d -1 -p SB -e 20 -c 2 -a 0 -i 0 -k RTR
r -t 1.006269324 -s 14 -d -1 -p SB -e 20 -c 2 -a 0 -i 0 -k RTR
r -t 1.006269393 -s 5 -d -1 -p SB -e 20 -c 2 -a 0 -i 0 -k RTR
r -t 1.006269393 -s 13 -d -1 -p SB -e 20 -c 2 -a 0 -i 0 -k RTR
r -t 1.007023491 -s 5 -d -1 -p SB -e 20 -c 2 -a 0 -i 0 -k RTR
r -t 1.007023491 -s 10 -d -1 -p SB -e 20 -c 2 -a 0 -i 0 -k RTR
r -t 1.007023560 -s 2 -d -1 -p SB -e 20 -c 2 -a 0 -i 0 -k RTR
r -t 1.007023560 -s 9 -d -1 -p SB -e 20 -c 2 -a 0 -i 0 -k RTR
r -t 1.007757658 -s 4 -d -1 -p SB -e 20 -c 2 -a 0 -i 0 -k RTR
r -t 1.007757658 -s 2 -d -1 -p SB -e 20 -c 2 -a 0 -i 0 -k RTR
r -t 1.007757658 -s 6 -d -1 -p SB -e 20 -c 2 -a 0 -i 0 -k RTR
r -t 1.007757658 -s 9 -d -1 -p SB -e 20 -c 2 -a 0 -i 0 -k RTR
r -t 1.007757727 -s 1 -d -1 -p SB -e 20 -c 2 -a 0 -i 0 -k RTR
r -t 1.007757727 -s 8 -d -1 -p SB -e 20 -c 2 -a 0 -i 0 -k RTR
r -t 1.007757727 -s 10 -d -1 -p SB -e 20 -c 2 -a 0 -i 0 -k RTR
r -t 1.008471893 -s 2 -d -1 -p SB -e 20 -c 2 -a 0 -i 0 -k RTR
r -t 1.008471893 -s 4 -d -1 -p SB -e 20 -c 2 -a 0 -i 0 -k RTR
r -t 1.008471913 -s 0 -d -1 -p SB -e 20 -c 2 -a 0 -i 0 -k RTR
r -t 1.008471962 -s 3 -d -1 -p SB -e 20 -c 2 -a 0 -i 0 -k RTR
r -t 1.008471962 -s 5 -d -1 -p SB -e 20 -c 2 -a 0 -i 0 -k RTR
r -t 1.009606129 -s 4 -d -1 -p SB -e 20 -c 2 -a 0 -i 0 -k RTR
r -t 1.009606129 -s 7 -d -1 -p SB -e 20 -c 2 -a 0 -i 0 -k RTR
r -t 1.009606198 -s 1 -d -1 -p SB -e 20 -c 2 -a 0 -i 0 -k RTR
r -t 1.009606198 -s 8 -d -1 -p SB -e 20 -c 2 -a 0 -i 0 -k RTR
r -t 1.010300365 -s 7 -d -1 -p SB -e 20 -c 2 -a 0 -i 0 -k RTR
r -t 1.010300365 -s 4 -d -1 -p SB -e 20 -c 2 -a 0 -i 0 -k RTR
r -t 1.010300365 -s 9 -d -1 -p SB -e 20 -c 2 -a 0 -i 0 -k RTR
r -t 1.010300365 -s 12 -d -1 -p SB -e 20 -c 2 -a 0 -i 0 -k RTR
r -t 1.010300434 -s 5 -d -1 -p SB -e 20 -c 2 -a 0 -i 0 -k RTR
r -t 1.010300434 -s 3 -d -1 -p SB -e 20 -c 2 -a 0 -i 0 -k RTR
r -t 1.010300434 -s 11 -d -1 -p SB -e 20 -c 2 -a 0 -i 0 -k RTR
+ -t 1.010300434 -s 11 -d -1 -p SB -e 20 -c 2 -a 0 -i 0 -k RTR 
- -t 1.010300434 -s 11 -d -1 -p SB -e 20 -c 2 -a 0 -i 0 -k RTR
h -t 1.010300434 -s 11 -d -1 -p SB -e 20 -c 2 -a 0 -i 0 -k RTR
r -t 1.010300434 -s 13 -d -1 -p SB -e 20 -c 2 -a 0 -i 0 -k RTR
r -t 1.011114532 -s 11 -d -1 -p SB -e 20 -c 2 -a 0 -i 0 -k RTR
r -t 1.011114532 -s 8 -d -1 -p SB -e 20 -c 2 -a 0 -i 0 -k RTR
r -t 1.011114532 -s 13 -d -1 -p SB -e 20 -c 2 -a 0 -i 0 -k RTR
r -t 1.011114532 -s 15 -d -1 -p SB -e 20 -c 2 -a 0 -i 0 -k RTR
r -t 1.011114601 -s 9 -d -1 -p SB -e 20 -c 2 -a 0 -i 0 -k RTR
r -t 1.011114601 -s 7 -d -1 -p SB -e 20 -c 2 -a 0 -i 0 -k RTR
r -t 1.011114601 -s 16 -d -1 -p SB -e 20 -c 2 -a 0 -i 0 -k RTR
r -t 1.011868767 -s 3 -d -1 -p SB -e 20 -c 2 -a 0 -i 0 -k RTR
r -t 1.011868780 -s 17 -d -1 -p SB -e 20 -c 2 -a 0 -i 0 -k RTR
+ -t 1.011868780 -s 17 -d -1 -p SB -e 20 -c 2 -a 0 -i 0 -k RTR 
- -t 1.011868780 -s 17 -d -1 -p SB -e 20 -c 2 -a 0 -i 0 -k RTR
h -t 1.011868780 -s 17 -d -1 -p SB -e 20 -c 2 -a 0 -i 0 -k RTR
r -t 1.011868836 -s 4 -d -1 -p SB -e 20 -c 2 -a 0 -i 0 -k RTR
r -t 1.011868836 -s 14 -d -1 -p SB -e 20 -c 2 -a 0 -i 0 -k RTR
r -t 1.012927140 -s 12 -d -1 -p SB -e 20 -c 2 -a 0 -i 0 -k RTR
r -t 1.012927140 -s 16 -d -1 -p SB -e 20 -c 2 -a 0 -i 0 -k RTR
r -t 1.012927168 -s 17 -d -1 -p SB -e 20 -c 2 -a 0 -i 0 -k RTR
r -t 1.012927209 -s 13 -d -1 -p SB -e 20 -c 2 -a 0 -i 0 -k RTR
r -t 1.012927209 -s 11 -d -1 -p SB -e 20 -c 2 -a 0 -i 0 -k RTR
r -t 1.013761376 -s 7 -d -1 -p SB -e 20 -c 2 -a 0 -i 0 -k RTR
r -t 1.013761376 -s 12 -d -1 -p SB -e 20 -c 2 -a 0 -i 0 -k RTR
r -t 1.013761445 -s 8 -d -1 -p SB -e 20 -c 2 -a 0 -i 0 -k RTR
r -t 1.013761445 -s 15 -d -1 -p SB -e 20 -c 2 -a 0 -i 0 -k RTR
r -t 1.015039815 -s 16 -d -1 -p SB -e 20 -c 2 -a 0 -i 0 -k RTR
r -t 1.015039830 -s 15 -d -1 -p SB -e 20 -c 2 -a 0 -i 0 -k RTR
+ -t 1.250000000 -s 0 -d -1 -p SB -e 20 -c 2 -a 0 -i 0 -k RTR 
- -t 1.250000000 -s 0 -d -1 -p SB -e 20 -c 2 -a 0 -i 0 -k RTR
h -t 1.250000000 -s 0 -d -1 -p SB -e 20 -c 2 -a 0 -i 0 -k RTR
r -t 1.250724186 -s 1 -d -1 -p SB -e 20 -c 2 -a 0 -i 0 -k RTR
r -t 1.250724186 -s 2 -d -1 -p SB -e 20 -c 2 -a 0 -i 0 -k RTR
+ -t 1.500000000 -s 0 -d -1 -p SB -e 20 -c 2 -a 0 -i 0 -k RTR 
- -t 1.500000000 -s 0 -d -1 -p SB -e 20 -c 2 -a 0 -i 0 -k RTR
h -t 1.500000000 -s 0 -d -1 -p SB -e 20 -c 2 -a 0 -i 0 -k RTR
r -t 1.500804186 -s 1 -d -1 -p SB -e 20 -c 2 -a 0 -i 0 -k RTR
+ -t 1.500804186 -s 1 -d -1 -p SB -e 20 -c 2 -a 0 -i 0 -k RTR 
- -t 1.500804186 -s 1 -d -1 -p SB -e 20 -c 2 -a 0 -i 0 -k RTR
h -t 1.500804186 -s 1 -d -1 -p SB -e 20 -c 2 -a 0 -i 0 -k RTR
r -t 1.500804186 -s 2 -d -1 -p SB -e 20 -c 2 -a 0 -i 0 -k RTR
+ -t 1.500804186 -s 2 -d -1 -p SB -e 20 -c 2 -a 0 -i 0 -k RTR 
- -t 1.500804186 -s 2 -d -1 -p SB -e 20 -c 2 -a 0 -i 0 -k RTR
h -t 1.500804186 -s 2 -d -1 -p SB -e 20 -c 2 -a 0 -i 0 -k RTR
r -t 1.501888353 -s 2 -d -1 -p SB -e 20 -c 2 -a 0 -i 0 -k RTR
+ -t 1.501888353 -s 2 -d -1 -p SB -e 20 -c 2 -a 0 -i 0 -k RTR 
- -t 1.501888353 -s 2 -d -1 -p SB -e 20 -c 2 -a 0 -i 0 -k RTR
h -t 1.501888353 -s 2 -d -1 -p SB -e 20 -c 2 -a 0 -i 0 -k RTR
r -t 1.501888353 -s 4 -d -1 -p SB -e 20 -c 2 -a 0 -i 0 -k RTR
r -t 1.501888373 -s 0 -d -1 -p SB -e 20 -c 2 -a 0 -i 0 -k RTR
r -t 1.501888422 -s 3 -d -1 -p SB -e 20 -c 2 -a 0 -i 0 -k RTR
r -t 1.501888422 -s 5 -d -1 -p SB -e 20 -c 2 -a 0 -i 0 -k RTR
r -t 1.502602520 -s 1 -d -1 -p SB -e 20 -c 2 -a 0 -i 0 -k RTR
+ -t 1.502602520 -s 1 -d -1 -p SB -e 20 -c 2 -a 0 -i 0 -k RTR 
- -t 1.502602520 -s 1 -d -1 -p SB -e 20 -c 2 -a 0 -i 0 -k RTR
h -t 1.502602520 -s 1 -d -1 -p SB -e 20 -c 2 -a 0 -i 0 -k RTR
r -t 1.502602520 -s 5 -d -1 -p SB -e 20 -c 2 -a 0 -i 0 -k RTR
+ -t 1.502602520 -s 5 -d -1 -p SB -e 20 -c 2 -a 0 -i 0 -k RTR 
- -t 1.502602520 -s 5 -d -1 -p SB -e 20 -c 2 -a 0 -i 0 -k RTR
h -t 1.502602520 -s 5 -d -1 -p SB -e 20 -c 2 -a 0 -i 0 -k RTR
r -t 1.502602539 -s 0 -d -1 -p SB -e 20 -c 2 -a 0 -i 0 -k RTR
r -t 1.502602589 -s 4 -d -1 -p SB -e 20 -c 2 -a 0 -i 0 -k RTR
+ -t 1.502602589 -s 4 -d -1 -p SB -e 20 -c 2 -a 0 -i 0 -k RTR 
- -t 1.502602589 -s 4 -d -1 -p SB -e 20 -c 2 -a 0 -i 0 -k RTR
h -t 1.502602589 -s 4 -d -1 -p SB -e 20 -c 2 -a 0 -i 0 -k RTR
r -t 1.502602589 -s 6 -d -1 -p SB -e 20 -c 2 -a 0 -i 0 -k RTR
r -t 1.503456520 -s 1 -d -1 -p SB -e 20 -c 2 -a 0 -i 0 -k RTR
+ -t 1.503456520 -s 1 -d -1 -p SB -e 20 -c 2 -a 0 -i 0 -k RTR 
- -t 1.503456520 -s 1 -d -1 -p SB -e 20 -c 2 -a 0 -i 0 -k RTR
h -t 1.503456520 -s 1 -d -1 -p SB -e 20 -c 2 -a 0 -i 0 -k RTR
r -t 1.503456520 -s 5 -d -1 -p SB -e 20 -c 2 -a 0 -i 0 -k RTR
r -t 1.503456539 -s 0 -d -1 -p SB -e 20 -c 2 -a 0 -i 0 -k RTR
r -t 1.503456589 -s 4 -d -1 -p SB -e 20 -c 2 -a 0 -i 0 -k RTR
r -t 1.503456589 -s 6 -d -1 -p SB -e 20 -c 2 -a 0 -i 0 -k RTR
+ -t 1.503456589 -s 6 -d -1 -p SB -e 20 -c 2 -a 0 -i 0 -k RTR 
- -t 1.503456589 -s 6 -d -1 -p SB -e 20 -c 2 -a 0 -i 0 -k RTR
h -t 1.503456589 -s 6 -d -1 -p SB -e 20 -c 2 -a 0 -i 0 -k RTR
r -t 1.504270686 -s 2 -d -1 -p SB -e 20 -c 2 -a 0 -i 0 -k RTR
+ -t 1.504270686 -s 2 -d -1 -p SB -e 20 -c 2 -a 0 -i 0 -k RTR 
- -t 1.504270686 -s 2 -d -1 -p SB -e 20 -c 2 -a 0 -i 0 -k RTR
h -t 1.504270686 -s 2 -d -1 -p SB -e 20 -c 2 -a 0 -i 0 -k RTR
r -t 1.504270686 -s 4 -d -1 -p SB -e 20 -c 2 -a 0 -i 0 -k RTR
r -t 1.504270706 -s 0 -d -1 -p SB -e 20 -c 2 -a 0 -i 0 -k RTR
r -t 1.504270755 -s 3 -d -1 -p SB -e 20 -c 2 -a 0 -i 0 -k RTR
+ -t 1.504270755 -s 3 -d -1 -p SB -e 20 -c 2 -a 0 -i 0 -k RTR 
- -t 1.504270755 -s 3 -d -1 -p SB -e 20 -c 2 -a 0 -i 0 -k RTR
h -t 1.504270755 -s 3 -d -1 -p SB -e 20 -c 2 -a 0 -i 0 -k RTR
r -t 1.504270755 -s 5 -d -1 -p SB -e 20 -c 2 -a 0 -i 0 -k RTR
r -t 1.504944686 -s 2 -d -1 -p SB -e 20 -c 2 -a 0 -i 0 -k RTR
r -t 1.504944686 -s 4 -d -1 -p SB -e 20 -c 2 -a 0 -i 0 -k RTR
r -t 1.504944706 -s 0 -d -1 -p SB -e 20 -c 2 -a 0 -i 0 -k RTR
r -t 1.504944755 -s 3 -d -1 -p SB -e 20 -c 2 -a 0 -i 0 -k RTR
r -t 1.504944755 -s 5 -d -1 -p SB -e 20 -c 2 -a 0 -i 0 -k RTR
r -t 1.505738922 -s 4 -d -1 -p SB -e 20 -c 2 -a 0 -i 0 -k RTR
r -t 1.505738922 -s 2 -d -1 -p SB -e 20 -c 2 -a 0 -i 0 -k RTR
r -t 1.505738922 -s 6 -d -1 -p SB -e 20 -c 2 -a 0 -i 0 -k RTR
r -t 1.505738922 -s 9 -d -1 -p SB -e 20 -c 2 -a 0 -i 0 -k RTR
r -t 1.505738991 -s 1 -d -1 -p SB -e 20 -c 2 -a 0 -i 0 -k RTR
r -t 1.505738991 -s 8 -d -1 -p SB -e 20 -c 2 -a 0 -i 0 -k RTR
r -t 1.505738991 -s 10 -d -1 -p SB -e 20 -c 2 -a 0 -i 0 -k RTR
r -t 1.506473158 -s 7 -d -1 -p SB -e 20 -c 2 -a 0 -i 0 -k RTR
r -t 1.507651422 -s 5 -d -1 -p SB -e 20 -c 2 -a 0 -i 0 -k RTR
r -t 1.507651422 -s 10 -d -1 -p SB -e 20 -c 2 -a 0 -i 0 -k RTR
+ -t 1.507651422 -s 10 -d -1 -p SB -e 20 -c 2 -a 0 -i 0 -k RTR 
- -t 1.507651422 -s 10 -d -1 -p SB -e 20 -c 2 -a 0 -i 0 -k RTR
h -t 1.507651422 -s 10 -d -1 -p SB -e 20 -c 2 -a 0 -i 0 -k RTR
r -t 1.507651491 -s 2 -d -1 -p SB -e 20 -c 2 -a 0 -i 0 -k RTR
r -t 1.507651491 -s 9 -d -1 -p SB -e 20 -c 2 -a 0 -i 0 -k RTR
+ -t 1.507651491 -s 9 -d -1 -p SB -e 20 -c 2 -a 0 -i 0 -k RTR 
- -t 1.507651491 -s 9 -d -1 -p SB -e 20 -c 2 -a 0 -i 0 -k RTR
h -t 1.507651491 -s 9 -d -1 -p SB -e 20 -c 2 -a 0 -i 0 -k RTR
r -t 1.508775658 -s 8 -d -1 -p SB -e 20 -c 2 -a 0 -i 0 -k RTR
+ -t 1.508775658 -s 8 -d -1 -p SB -e 20 -c 2 -a 0 -i 0 -k RTR 
- -t 1.508775658 -s 8 -d -1 -p SB -e 20 -c 2 -a 0 -i 0 -k RTR
h -t 1.508775658 -s 8 -d -1 -p SB -e 20 -c 2 -a 0 -i 0 -k RTR
r -t 1.508775658 -s 5 -d -1 -p SB -e 20 -c 2 -a 0 -i 0 -k RTR
r -t 1.508775658 -s 10 -d -1 -p SB -e 20 -c 2 -a 0 -i 0 -k RTR
r -t 1.508775658 -s 13 -d -1 -p SB -e 20 -c 2 -a 0 -i 0 -k RTR
r -t 1.508775727 -s 6 -d -1 -p SB -e 20 -c 2 -a 0 -i 0 -k RTR
r -t 1.508775727 -s 4 -d -1 -p SB -e 20 -c 2 -a 0 -i 0 -k RTR
r -t 1.508775727 -s 12 -d -1 -p SB -e 20 -c 2 -a 0 -i 0 -k RTR
r -t 1.508775727 -s 14 -d -1 -p SB -e 20 -c 2 -a 0 -i 0 -k RTR
r -t 1.509489824 -s 9 -d -1 -p SB -e 20 -c 2 -a 0 -i 0 -k RTR
r -t 1.509489824 -s 6 -d -1 -p SB -e 20 -c 2 -a 0 -i 0 -k RTR
r -t 1.509489824 -s 14 -d -1 -p SB -e 20 -c 2 -a 0 -i 0 -k RTR
r -t 1.509489893 -s 5 -d -1 -p SB -e 20 -c 2 -a 0 -i 0 -k RTR
r -t 1.509489893 -s 13 -d -1 -p SB -e 20 -c 2 -a 0 -i 0 -k RTR
r -t 1.510588158 -s 7 -d -1 -p SB -e 20 -c 2 -a 0 -i 0 -k RTR
+ -t 1.510588158 -s 7 -d -1 -p SB -e 20 -c 2 -a 0 -i 0 -k RTR 
- -t 1.510588158 -s 7 -d -1 -p SB -e 20 -c 2 -a 0 -i 0 -k RTR
h -t 1.510588158 -s 7 -d -1 -p SB -e 20 -c 2 -a 0 -i 0 -k RTR
r -t 1.510588158 -s 4 -d -1 -p SB -e 20 -c 2 -a 0 -i 0 -k RTR
r -t 1.510588158 -s 9 -d -1 -p SB -e 20 -c 2 -a 0 -i 0 -k RTR
r -t 1.510588158 -s 12 -d -1 -p SB -e 20 -c 2 -a 0 -i 0 -k RTR
r -t 1.510588227 -s 5 -d -1 -p SB -e 20 -c 2 -a 0 -i 0 -k RTR
r -t 1.510588227 -s 3 -d -1 -p SB -e 20 -c 2 -a 0 -i 0 -k RTR
r -t 1.510588227 -s 11 -d -1 -p SB -e 20 -c 2 -a 0 -i 0 -k RTR
r -t 1.510588227 -s 13 -d -1 -p SB -e 20 -c 2 -a 0 -i 0 -k RTR
r -t 1.511322393 -s 4 -d -1 -p SB -e 20 -c 2 -a 0 -i 0 -k RTR
r -t 1.511322393 -s 7 -d -1 -p SB -e 20 -c 2 -a 0 -i 0 -k RTR
r -t 1.511322462 -s 1 -d -1 -p SB -e 20 -c 2 -a 0 -i 0 -k RTR
r -t 1.511322462 -s 8 -d -1 -p SB -e 20 -c 2 -a 0 -i 0 -k RTR
r -t 1.512196560 -s 3 -d -1 -p SB -e 20 -c 2 -a 0 -i 0 -k RTR
r -t 1.512196560 -s 8 -d -1 -p SB -e 20 -c 2 -a 0 -i 0 -k RTR
r -t 1.512196560 -s 11 -d -1 -p SB -e 20 -c 2 -a 0 -i 0 -k RTR
r -t 1.512196629 -s 4 -d -1 -p SB -e 20 -c 2 -a 0 -i 0 -k RTR
r -t 1.512196629 -s 12 -d -1 -p SB -e 20 -c 2 -a 0 -i 0 -k RTR
+ -t 1.750000000 -s 0 -d -1 -p SB -e 20 -c 2 -a 0 -i 0 -k RTR 
- -t 1.750000000 -s 0 -d -1 -p SB -e 20 -c 2 -a 0 -i 0 -k RTR
h -t 1.750000000 -s 0 -d -1 -p SB -e 20 -c 2 -a 0 -i 0 -k RTR
r -t 1.751044186 -s 1 -d -1 -p SB -e 20 -c 2 -a 0 -i 0 -k RTR
r -t 1.751044186 -s 2 -d -1 -p SB -e 20 -c 2 -a 0 -i 0 -k RTR
n -t 2.000000 -s 3 -x 100.000000 -y 250.000000 -U 0.000000 -V -16.600000 -T 12.048193
n -t 2.000000 -s 4 -x 100.000000 -y 200.000000 -U 0.000000 -V 16.600000 -T 6.024096
n -t 2.000000 -s 7 -x 150.000000 -y 250.000000 -U 0.000000 -V 16.600000 -T 3.012048
n -t 2.000000 -s 8 -x 150.000000 -y 200.000000 -U 0.000000 -V -16.600000 -T 9.036145
n -t 2.000000 -s 11 -x 200.000000 -y 250.000000 -U 0.000000 -V -16.600000 -T 12.048193
n -t 2.000000 -s 12 -x 200.000000 -y 200.000000 -U 0.000000 -V 16.600000 -T 6.024096
+ -t 2.000000000 -s 0 -d -1 -p SB -e 20 -c 2 -a 0 -i 0 -k RTR 
- -t 2.000000000 -s 0 -d -1 -p SB -e 20 -c 2 -a 0 -i 0 -k RTR
h -t 2.000000000 -s 0 -d -1 -p SB -e 20 -c 2 -a 0 -i 0 -k RTR
r -t 2.001024186 -s 1 -d -1 -p SB -e 20 -c 2 -a 0 -i 0 -k RTR
+ -t 2.001024186 -s 1 -d -1 -p SB -e 20 -c 2 -a 0 -i 0 -k RTR 
- -t 2.001024186 -s 1 -d -1 -p SB -e 20 -c 2 -a 0 -i 0 -k RTR
h -t 2.001024186 -s 1 -d -1 -p SB -e 20 -c 2 -a 0 -i 0 -k RTR
r -t 2.001024186 -s 2 -d -1 -p SB -e 20 -c 2 -a 0 -i 0 -k RTR
+ -t 2.001024186 -s 2 -d -1 -p SB -e 20 -c 2 -a 0 -i 0 -k RTR 
- -t 2.001024186 -s 2 -d -1 -p SB -e 20 -c 2 -a 0 -i 0 -k RTR
h -t 2.001024186 -s 2 -d -1 -p SB -e 20 -c 2 -a 0 -i 0 -k RTR
r -t 2.001848353 -s 1 -d -1 -p SB -e 20 -c 2 -a 0 -i 0 -k RTR
+ -t 2.001848353 -s 1 -d -1 -p SB -e 20 -c 2 -a 0 -i 0 -k RTR 
- -t 2.001848353 -s 1 -d -1 -p SB -e 20 -c 2 -a 0 -i 0 -k RTR
h -t 2.001848353 -s 1 -d -1 -p SB -e 20 -c 2 -a 0 -i 0 -k RTR
r -t 2.001848353 -s 5 -d -1 -p SB -e 20 -c 2 -a 0 -i 0 -k RTR
r -t 2.001848373 -s 0 -d -1 -p SB -e 20 -c 2 -a 0 -i 0 -k RTR
r -t 2.001848422 -s 6 -d -1 -p SB -e 20 -c 2 -a 0 -i 0 -k RTR
r -t 2.001848422 -s 4 -d -1 -p SB -e 20 -c 2 -a 0 -i 0 -k RTR
r -t 2.002542520 -s 2 -d -1 -p SB -e 20 -c 2 -a 0 -i 0 -k RTR
+ -t 2.002542520 -s 2 -d -1 -p SB -e 20 -c 2 -a 0 -i 0 -k RTR 
- -t 2.002542520 -s 2 -d -1 -p SB -e 20 -c 2 -a 0 -i 0 -k RTR
h -t 2.002542520 -s 2 -d -1 -p SB -e 20 -c 2 -a 0 -i 0 -k RTR
r -t 2.002542520 -s 4 -d -1 -p SB -e 20 -c 2 -a 0 -i 0 -k RTR
+ -t 2.002542520 -s 4 -d -1 -p SB -e 20 -c 2 -a 0 -i 0 -k RTR 
- -t 2.002542520 -s 4 -d -1 -p SB -e 20 -c 2 -a 0 -i 0 -k RTR
h -t 2.002542520 -s 4 -d -1 -p SB -e 20 -c 2 -a 0 -i 0 -k RTR
r -t 2.002542539 -s 0 -d -1 -p SB -e 20 -c 2 -a 0 -i 0 -k RTR
r -t 2.002542589 -s 3 -d -1 -p SB -e 20 -c 2 -a 0 -i 0 -k RTR
r -t 2.002542589 -s 5 -d -1 -p SB -e 20 -c 2 -a 0 -i 0 -k RTR
+ -t 2.002542589 -s 5 -d -1 -p SB -e 20 -c 2 -a 0 -i 0 -k RTR 
- -t 2.002542589 -s 5 -d -1 -p SB -e 20 -c 2 -a 0 -i 0 -k RTR
h -t 2.002542589 -s 5 -d -1 -p SB -e 20 -c 2 -a 0 -i 0 -k RTR
r -t 2.003346686 -s 1 -d -1 -p SB -e 20 -c 2 -a 0 -i 0 -k RTR
+ -t 2.003346686 -s 1 -d -1 -p SB -e 20 -c 2 -a 0 -i 0 -k RTR 
- -t 2.003346686 -s 1 -d -1 -p SB -e 20 -c 2 -a 0 -i 0 -k RTR
h -t 2.003346686 -s 1 -d -1 -p SB -e 20 -c 2 -a 0 -i 0 -k RTR
r -t 2.003346686 -s 5 -d -1 -p SB -e 20 -c 2 -a 0 -i 0 -k RTR
r -t 2.003346706 -s 0 -d -1 -p SB -e 20 -c 2 -a 0 -i 0 -k RTR
r -t 2.003346755 -s 6 -d -1 -p SB -e 20 -c 2 -a 0 -i 0 -k RTR
+ -t 2.003346755 -s 6 -d -1 -p SB -e 20 -c 2 -a 0 -i 0 -k RTR 
- -t 2.003346755 -s 6 -d -1 -p SB -e 20 -c 2 -a 0 -i 0 -k RTR
h -t 2.003346755 -s 6 -d -1 -p SB -e 20 -c 2 -a 0 -i 0 -k RTR
r -t 2.003346755 -s 4 -d -1 -p SB -e 20 -c 2 -a 0 -i 0 -k RTR
r -t 2.004210922 -s 5 -d -1 -p SB -e 20 -c 2 -a 0 -i 0 -k RTR
r -t 2.004210922 -s 10 -d -1 -p SB -e 20 -c 2 -a 0 -i 0 -k RTR
r -t 2.004210991 -s 2 -d -1 -p SB -e 20 -c 2 -a 0 -i 0 -k RTR
r -t 2.004210991 -s 9 -d -1 -p SB -e 20 -c 2 -a 0 -i 0 -k RTR
r -t 2.005105089 -s 2 -d -1 -p SB -e 20 -c 2 -a 0 -i 0 -k RTR
r -t 2.005105089 -s 6 -d -1 -p SB -e 20 -c 2 -a 0 -i 0 -k RTR
r -t 2.005105089 -s 9 -d -1 -p SB -e 20 -c 2 -a 0 -i 0 -k RTR
r -t 2.005105089 -s 4 -d -1 -p SB -e 20 -c 2 -a 0 -i 0 -k RTR
r -t 2.005105158 -s 8 -d -1 -p SB -e 20 -c 2 -a 0 -i 0 -k RTR
r -t 2.005105158 -s 1 -d -1 -p SB -e 20 -c 2 -a 0 -i 0 -k RTR
r -t 2.005105158 -s 10 -d -1 -p SB -e 20 -c 2 -a 0 -i 0 -k RTR
r -t 2.005799255 -s 3 -d -1 -p SB -e 20 -c 2 -a 0 -i 0 -k RTR
r -t 2.005799256 -s 1 -d -1 -p SB -e 20 -c 2 -a 0 -i 0 -k RTR
r -t 2.005799256 -s 8 -d -1 -p SB -e 20 -c 2 -a 0 -i 0 -k RTR
r -t 2.005799256 -s 5 -d -1 -p SB -e 20 -c 2 -a 0 -i 0 -k RTR
r -t 2.005799325 -s 7 -d -1 -p SB -e 20 -c 2 -a 0 -i 0 -k RTR
r -t 2.005799325 -s 2 -d -1 -p SB -e 20 -c 2 -a 0 -i 0 -k RTR
r -t 2.005799325 -s 9 -d -1 -p SB -e 20 -c 2 -a 0 -i 0 -k RTR
r -t 2.006633422 -s 2 -d -1 -p SB -e 20 -c 2 -a 0 -i 0 -k RTR
+ -t 2.006633422 -s 2 -d -1 -p SB -e 20 -c 2 -a 0 -i 0 -k RTR 
- -t 2.006633422 -s 2 -d -1 -p SB -e 20 -c 2 -a 0 -i 0 -k RTR
h -t 2.006633422 -s 2 -d -1 -p SB -e 20 -c 2 -a 0 -i 0 -k RTR
r -t 2.006633422 -s 4 -d -1 -p SB -e 20 -c 2 -a 0 -i 0 -k RTR
r -t 2.006633442 -s 0 -d -1 -p SB -e 20 -c 2 -a 0 -i 0 -k RTR
r -t 2.006633491 -s 3 -d -1 -p SB -e 20 -c 2 -a 0 -i 0 -k RTR
+ -t 2.006633491 -s 3 -d -1 -p SB -e 20 -c 2 -a 0 -i 0 -k RTR 
- -t 2.006633491 -s 3 -d -1 -p SB -e 20 -c 2 -a 0 -i 0 -k RTR
h -t 2.006633491 -s 3 -d -1 -p SB -e 20 -c 2 -a 0 -i 0 -k RTR
r -t 2.006633491 -s 5 -d -1 -p SB -e 20 -c 2 -a 0 -i 0 -k RTR
r -t 2.007377657 -s 4 -d -1 -p SB -e 20 -c 2 -a 0 -i 0 -k RTR
r -t 2.007377658 -s 7 -d -1 -p SB -e 20 -c 2 -a 0 -i 0 -k RTR
+ -t 2.007377658 -s 7 -d -1 -p SB -e 20 -c 2 -a 0 -i 0 -k RTR 
- -t 2.007377658 -s 7 -d -1 -p SB -e 20 -c 2 -a 0 -i 0 -k RTR
h -t 2.007377658 -s 7 -d -1 -p SB -e 20 -c 2 -a 0 -i 0 -k RTR
r -t 2.007377727 -s 1 -d -1 -p SB -e 20 -c 2 -a 0 -i 0 -k RTR
r -t 2.007377727 -s 8 -d -1 -p SB -e 20 -c 2 -a 0 -i 0 -k RTR
+ -t 2.007377727 -s 8 -d -1 -p SB -e 20 -c 2 -a 0 -i 0 -k RTR 
- -t 2.007377727 -s 8 -d -1 -p SB -e 20 -c 2 -a 0 -i 0 -k RTR
h -t 2.007377727 -s 8 -d -1 -p SB -e 20 -c 2 -a 0 -i 0 -k RTR
r -t 2.008451893 -s 2 -d -1 -p SB -e 20 -c 2 -a 0 -i 0 -k RTR
r -t 2.008451893 -s 4 -d -1 -p SB -e 20 -c 2 -a 0 -i 0 -k RTR
r -t 2.008451913 -s 0 -d -1 -p SB -e 20 -c 2 -a 0 -i 0 -k RTR
r -t 2.008451962 -s 3 -d -1 -p SB -e 20 -c 2 -a 0 -i 0 -k RTR
r -t 2.008451962 -s 5 -d -1 -p SB -e 20 -c 2 -a 0 -i 0 -k RTR
r -t 2.009166060 -s 1 -d -1 -p SB -e 20 -c 2 -a 0 -i 0 -k RTR
r -t 2.009166060 -s 5 -d -1 -p SB -e 20 -c 2 -a 0 -i 0 -k RTR
r -t 2.009166080 -s 0 -d -1 -p SB -e 20 -c 2 -a 0 -i 0 -k RTR
r -t 2.009166129 -s 6 -d -1 -p SB -e 20 -c 2 -a 0 -i 0 -k RTR
r -t 2.009166129 -s 4 -d -1 -p SB -e 20 -c 2 -a 0 -i 0 -k RTR
r -t 2.010264432 -s 9 -d -1 -p SB -e 20 -c 2 -a 0 -i 0 -k RTR
+ -t 2.010264432 -s 9 -d -1 -p SB -e 20 -c 2 -a 0 -i 0 -k RTR 
- -t 2.010264432 -s 9 -d -1 -p SB -e 20 -c 2 -a 0 -i 0 -k RTR
h -t 2.010264432 -s 9 -d -1 -p SB -e 20 -c 2 -a 0 -i 0 -k RTR
r -t 2.010264432 -s 4 -d -1 -p SB -e 20 -c 2 -a 0 -i 0 -k RTR
r -t 2.010264432 -s 12 -d -1 -p SB -e 20 -c 2 -a 0 -i 0 -k RTR
r -t 2.010264433 -s 7 -d -1 -p SB -e 20 -c 2 -a 0 -i 0 -k RTR
r -t 2.010264501 -s 5 -d -1 -p SB -e 20 -c 2 -a 0 -i 0 -k RTR
r -t 2.010264501 -s 13 -d -1 -p SB -e 20 -c 2 -a 0 -i 0 -k RTR
r -t 2.010264501 -s 3 -d -1 -p SB -e 20 -c 2 -a 0 -i 0 -k RTR
r -t 2.010264501 -s 11 -d -1 -p SB -e 20 -c 2 -a 0 -i 0 -k RTR
r -t 2.010988598 -s 8 -d -1 -p SB -e 20 -c 2 -a 0 -i 0 -k RTR
r -t 2.010988598 -s 5 -d -1 -p SB -e 20 -c 2 -a 0 -i 0 -k RTR
r -t 2.010988598 -s 10 -d -1 -p SB -e 20 -c 2 -a 0 -i 0 -k RTR
+ -t 2.010988598 -s 10 -d -1 -p SB -e 20 -c 2 -a 0 -i 0 -k RTR 
- -t 2.010988598 -s 10 -d -1 -p SB -e 20 -c 2 -a 0 -i 0 -k RTR
h -t 2.010988598 -s 10 -d -1 -p SB -e 20 -c 2 -a 0 -i 0 -k RTR
r -t 2.010988598 -s 13 -d -1 -p SB -e 20 -c 2 -a 0 -i 0 -k RTR
r -t 2.010988667 -s 6 -d -1 -p SB -e 20 -c 2 -a 0 -i 0 -k RTR
r -t 2.010988667 -s 14 -d -1 -p SB -e 20 -c 2 -a 0 -i 0 -k RTR
r -t 2.010988668 -s 4 -d -1 -p SB -e 20 -c 2 -a 0 -i 0 -k RTR
r -t 2.010988668 -s 12 -d -1 -p SB -e 20 -c 2 -a 0 -i 0 -k RTR
r -t 2.011912765 -s 9 -d -1 -p SB -e 20 -c 2 -a 0 -i 0 -k RTR
r -t 2.011912765 -s 6 -d -1 -p SB -e 20 -c 2 -a 0 -i 0 -k RTR
r -t 2.011912765 -s 14 -d -1 -p SB -e 20 -c 2 -a 0 -i 0 -k RTR
r -t 2.011912834 -s 5 -d -1 -p SB -e 20 -c 2 -a 0 -i 0 -k RTR
r -t 2.011912834 -s 13 -d -1 -p SB -e 20 -c 2 -a 0 -i 0 -k RTR
r -t 2.013051266 -s 3 -d -1 -p SB -e 20 -c 2 -a 0 -i 0 -k RTR
r -t 2.013051266 -s 11 -d -1 -p SB -e 20 -c 2 -a 0 -i 0 -k RTR
r -t 2.013051267 -s 8 -d -1 -p SB -e 20 -c 2 -a 0 -i 0 -k RTR
r -t 2.013051335 -s 4 -d -1 -p SB -e 20 -c 2 -a 0 -i 0 -k RTR
r -t 2.013051335 -s 12 -d -1 -p SB -e 20 -c 2 -a 0 -i 0 -k RTR
+ -t 2.250000000 -s 0 -d -1 -p SB -e 20 -c 2 -a 0 -i 0 -k RTR 
- -t 2.250000000 -s 0 -d -1 -p SB -e 20 -c 2 -a 0 -i 0 -k RTR
h -t 2.250000000 -s 0 -d -1 -p SB -e 20 -c 2 -a 0 -i 0 -k RTR
r -t 2.250944186 -s 1 -d -1 -p SB -e 20 -c 2 -a 0 -i 0 -k RTR
r -t 2.250944186 -s 2 -d -1 -p SB -e 20 -c 2 -a 0 -i 0 -k RTR
+ -t 2.500000000 -s 0 -d -1 -p SB -e 20 -c 2 -a 0 -i 0 -k RTR 
- -t 2.500000000 -s 0 -d -1 -p SB -e 20 -c 2 -a 0 -i 0 -k RTR
h -t 2.500000000 -s 0 -d -1 -p SB -e 20 -c 2 -a 0 -i 0 -k RTR
r -t 2.500744186 -s 1 -d -1 -p SB -e 20 -c 2 -a 0 -i 0 -k RTR
+ -t 2.500744186 -s 1 -d -1 -p SB -e 20 -c 2 -a 0 -i 0 -k RTR 
- -t 2.500744186 -s 1 -d -1 -p SB -e 20 -c 2 -a 0 -i 0 -k RTR
h -t 2.500744186 -s 1 -d -1 -p SB -e 20 -c 2 -a 0 -i 0 -k RTR
r -t 2.500744186 -s 2 -d -1 -p SB -e 20 -c 2 -a 0 -i 0 -k RTR
+ -t 2.500744186 -s 2 -d -1 -p SB -e 20 -c 2 -a 0 -i 0 -k RTR 
- -t 2.500744186 -s 2 -d -1 -p SB -e 20 -c 2 -a 0 -i 0 -k RTR
h -t 2.500744186 -s 2 -d -1 -p SB -e 20 -c 2 -a 0 -i 0 -k RTR
r -t 2.501648353 -s 1 -d -1 -p SB -e 20 -c 2 -a 0 -i 0 -k RTR
+ -t 2.501648353 -s 1 -d -1 -p SB -e 20 -c 2 -a 0 -i 0 -k RTR 
- -t 2.501648353 -s 1 -d -1 -p SB -e 20 -c 2 -a 0 -i 0 -k RTR
h -t 2.501648353 -s 1 -d -1 -p SB -e 20 -c 2 -a 0 -i 0 -k RTR
r -t 2.501648353 -s 5 -d -1 -p SB -e 20 -c 2 -a 0 -i 0 -k RTR
r -t 2.501648373 -s 0 -d -1 -p SB -e 20 -c 2 -a 0 -i 0 -k RTR
r -t 2.501648422 -s 6 -d -1 -p SB -e 20 -c 2 -a 0 -i 0 -k RTR
r -t 2.502402520 -s 2 -d -1 -p SB -e 20 -c 2 -a 0 -i 0 -k RTR
+ -t 2.502402520 -s 2 -d -1 -p SB -e 20 -c 2 -a 0 -i 0 -k RTR 
- -t 2.502402520 -s 2 -d -1 -p SB -e 20 -c 2 -a 0 -i 0 -k RTR
h -t 2.502402520 -s 2 -d -1 -p SB -e 20 -c 2 -a 0 -i 0 -k RTR
r -t 2.502402522 -s 4 -d -1 -p SB -e 20 -c 2 -a 0 -i 0 -k RTR
r -t 2.502402539 -s 0 -d -1 -p SB -e 20 -c 2 -a 0 -i 0 -k RTR
r -t 2.502402570 -s 3 -d -1 -p SB -e 20 -c 2 -a 0 -i 0 -k RTR
r -t 2.502402589 -s 5 -d -1 -p SB -e 20 -c 2 -a 0 -i 0 -k RTR
+ -t 2.502402589 -s 5 -d -1 -p SB -e 20 -c 2 -a 0 -i 0 -k RTR 
- -t 2.502402589 -s 5 -d -1 -p SB -e 20 -c 2 -a 0 -i 0 -k RTR
h -t 2.502402589 -s 5 -d -1 -p SB -e 20 -c 2 -a 0 -i 0 -k RTR
r -t 2.503136686 -s 1 -d -1 -p SB -e 20 -c 2 -a 0 -i 0 -k RTR
+ -t 2.503136686 -s 1 -d -1 -p SB -e 20 -c 2 -a 0 -i 0 -k RTR 
- -t 2.503136686 -s 1 -d -1 -p SB -e 20 -c 2 -a 0 -i 0 -k RTR
h -t 2.503136686 -s 1 -d -1 -p SB -e 20 -c 2 -a 0 -i 0 -k RTR
r -t 2.503136686 -s 5 -d -1 -p SB -e 20 -c 2 -a 0 -i 0 -k RTR
r -t 2.503136706 -s 0 -d -1 -p SB -e 20 -c 2 -a 0 -i 0 -k RTR
r -t 2.503136755 -s 6 -d -1 -p SB -e 20 -c 2 -a 0 -i 0 -k RTR
+ -t 2.503136755 -s 6 -d -1 -p SB -e 20 -c 2 -a 0 -i 0 -k RTR 
- -t 2.503136755 -s 6 -d -1 -p SB -e 20 -c 2 -a 0 -i 0 -k RTR
h -t 2.503136755 -s 6 -d -1 -p SB -e 20 -c 2 -a 0 -i 0 -k RTR
r -t 2.504030853 -s 2 -d -1 -p SB -e 20 -c 2 -a 0 -i 0 -k RTR
+ -t 2.504030853 -s 2 -d -1 -p SB -e 20 -c 2 -a 0 -i 0 -k RTR 
- -t 2.504030853 -s 2 -d -1 -p SB -e 20 -c 2 -a 0 -i 0 -k RTR
h -t 2.504030853 -s 2 -d -1 -p SB -e 20 -c 2 -a 0 -i 0 -k RTR
r -t 2.504030855 -s 4 -d -1 -p SB -e 20 -c 2 -a 0 -i 0 -k RTR
+ -t 2.504030855 -s 4 -d -1 -p SB -e 20 -c 2 -a 0 -i 0 -k RTR 
- -t 2.504030855 -s 4 -d -1 -p SB -e 20 -c 2 -a 0 -i 0 -k RTR
h -t 2.504030855 -s 4 -d -1 -p SB -e 20 -c 2 -a 0 -i 0 -k RTR
r -t 2.504030873 -s 0 -d -1 -p SB -e 20 -c 2 -a 0 -i 0 -k RTR
r -t 2.504030903 -s 3 -d -1 -p SB -e 20 -c 2 -a 0 -i 0 -k RTR
+ -t 2.504030903 -s 3 -d -1 -p SB -e 20 -c 2 -a 0 -i 0 -k RTR 
- -t 2.504030903 -s 3 -d -1 -p SB -e 20 -c 2 -a 0 -i 0 -k RTR
h -t 2.504030903 -s 3 -d -1 -p SB -e 20 -c 2 -a 0 -i 0 -k RTR
r -t 2.504030922 -s 5 -d -1 -p SB -e 20 -c 2 -a 0 -i 0 -k RTR
r -t 2.504854966 -s 3 -d -1 -p SB -e 20 -c 2 -a 0 -i 0 -k RTR
r -t 2.504855024 -s 1 -d -1 -p SB -e 20 -c 2 -a 0 -i 0 -k RTR
r -t 2.504855031 -s 8 -d -1 -p SB -e 20 -c 2 -a 0 -i 0 -k RTR
r -t 2.504855050 -s 5 -d -1 -p SB -e 20 -c 2 -a 0 -i 0 -k RTR
r -t 2.504855091 -s 7 -d -1 -p SB -e 20 -c 2 -a 0 -i 0 -k RTR