s 1.000000000 _0_ RTR  --- 0 SB 20 [0 0 0 0] ------- [0:255 -1:255 32 0] 
r 1.001304186 _1_ RTR  --- 0 SB 20 [0 ffffffff 0 800] ------- [0:255 -1:255 32 0] 
f 1.001304186 _1_ RTR  --- 0 SB 20 [0 ffffffff 0 800] ------- [0:255 -1:255 32 0] 
r 1.001304186 _2_ RTR  --- 0 SB 20 [0 ffffffff 0 800] ------- [0:255 -1:255 32 0] 
f 1.001304186 _2_ RTR  --- 0 SB 20 [0 ffffffff 0 800] ------- [0:255 -1:255 32 0] 
r 1.002188353 _1_ RTR  --- 0 SB 20 [0 ffffffff 2 800] ------- [0:255 -1:255 32 0] 
r 1.002188353 _5_ RTR  --- 0 SB 20 [0 ffffffff 2 800] ------- [0:255 -1:255 32 0] 
f 1.002188353 _5_ RTR  --- 0 SB 20 [0 ffffffff 2 800] ------- [0:255 -1:255 32 0] 
r 1.002188373 _0_ RTR  --- 0 SB 20 [0 ffffffff 2 800] ------- [0:255 -1:255 32 0] 
r 1.002188422 _4_ RTR  --- 0 SB 20 [0 ffffffff 2 800] ------- [0:255 -1:255 32 0] 
f 1.002188422 _4_ RTR  --- 0 SB 20 [0 ffffffff 2 800] ------- [0:255 -1:255 32 0] 
r 1.002188422 _6_ RTR  --- 0 SB 20 [0 ffffffff 2 800] ------- [0:255 -1:255 32 0] 
f 1.002188422 _6_ RTR  --- 0 SB 20 [0 ffffffff 2 800] ------- [0:255 -1:255 32 0] 
r 1.003122520 _2_ RTR  --- 0 SB 20 [0 ffffffff 1 800] ------- [0:255 -1:255 32 0] 
r 1.003122520 _4_ RTR  --- 0 SB 20 [0 ffffffff 1 800] ------- [0:255 -1:255 32 0] 
r 1.003122539 _0_ RTR  --- 0 SB 20 [0 ffffffff 1 800] ------- [0:255 -1:255 32 0] 
r 1.003122589 _3_ RTR  --- 0 SB 20 [0 ffffffff 1 800] ------- [0:255 -1:255 32 0] 
f 1.003122589 _3_ RTR  --- 0 SB 20 [0 ffffffff 1 800] ------- [0:255 -1:255 32 0] 
r 1.003122589 _5_ RTR  --- 0 SB 20 [0 ffffffff 1 800] ------- [0:255 -1:255 32 0] 
r 1.003956755 _4_ RTR  --- 0 SB 20 [0 ffffffff 5 800] ------- [0:255 -1:255 32 0] 
r 1.003956755 _2_ RTR  --- 0 SB 20 [0 ffffffff 5 800] ------- [0:255 -1:255 32 0] 
r 1.003956755 _6_ RTR  --- 0 SB 20 [0 ffffffff 5 800] ------- [0:255 -1:255 32 0] 
r 1.003956755 _9_ RTR  --- 0 SB 20 [0 ffffffff 5 800] ------- [0:255 -1:255 32 0] 
f 1.003956755 _9_ RTR  --- 0 SB 20 [0 ffffffff 5 800] ------- [0:255 -1:255 32 0] 
r 1.003956824 _1_ RTR  --- 0 SB 20 [0 ffffffff 5 800] ------- [0:255 -1:255 32 0] 
r 1.003956824 _8_ RTR  --- 0 SB 20 [0 ffffffff 5 800] ------- [0:255 -1:255 32 0] 
f 1.003956824 _8_ RTR  --- 0 SB 20 [0 ffffffff 5 800] ------- [0:255 -1:255 32 0] 
r 1.003956824 _10_ RTR  --- 0 SB 20 [0 ffffffff 5 800] ------- [0:255 -1:255 32 0] 
f 1.003956824 _10_ RTR  --- 0 SB 20 [0 ffffffff 5 800] ------- [0:255 -1:255 32 0] 
r 1.004670922 _5_ RTR  --- 0 SB 20 [0 ffffffff 6 800] ------- [0:255 -1:255 32 0] 
r 1.004670922 _10_ RTR  --- 0 SB 20 [0 ffffffff 6 800] ------- [0:255 -1:255 32 0] 
r 1.004670991 _2_ RTR  --- 0 SB 20 [0 ffffffff 6 800] ------- [0:255 -1:255 32 0] 
r 1.004670991 _9_ RTR  --- 0 SB 20 [0 ffffffff 6 800] ------- [0:255 -1:255 32 0] 
r 1.005709295 _7_ RTR  --- 0 SB 20 [0 ffffffff 8 800] ------- [0:255 -1:255 32 0] 
f 1.005709295 _7_ RTR  --- 0 SB 20 [0 ffffffff 8 800] ------- [0:255 -1:255 32 0] 
r 1.005709295 _4_ RTR  --- 0 SB 20 [0 ffffffff 8 800] ------- [0:255 -1:255 32 0] 
r 1.005709295 _9_ RTR  --- 0 SB 20 [0 ffffffff 8 800] ------- [0:255 -1:255 32 0] 
r 1.005709295 _12_ RTR  --- 0 SB 20 [0 ffffffff 8 800] ------- [0:255 -1:255 32 0] 
f 1.005709295 _12_ RTR  --- 0 SB 20 [0 ffffffff 8 800] ------- [0:255 -1:255 32 0] 
r 1.005709364 _5_ RTR  --- 0 SB 20 [0 ffffffff 8 800] ------- [0:255 -1:255 32 0] 
r 1.005709364 _3_ RTR  --- 0 SB 20 [0 ffffffff 8 800] ------- [0:255 -1:255 32 0] 
r 1.005709364 _11_ RTR  --- 0 SB 20 [0 ffffffff 8 800] ------- [0:255 -1:255 32 0] 
f 1.005709364 _11_ RTR  --- 0 SB 20 [0 ffffffff 8 800] ------- [0:255 -1:255 32 0] 
r 1.005709364 _13_ RTR  --- 0 SB 20 [0 ffffffff 8 800] ------- [0:255 -1:255 32 0] 
f 1.005709364 _13_ RTR  --- 0 SB 20 [0 ffffffff 8 800] ------- [0:255 -1:255 32 0] 
r 1.006453461 _3_ RTR  --- 0 SB 20 [0 ffffffff 7 800] ------- [0:255 -1:255 32 0] 
r 1.006453461 _8_ RTR  --- 0 SB 20 [0 ffffffff 7 800] ------- [0:255 -1:255 32 0] 
r 1.006453461 _11_ RTR  --- 0 SB 20 [0 ffffffff 7 800] ------- [0:255 -1:255 32 0] 
r 1.006453530 _4_ RTR  --- 0 SB 20 [0 ffffffff 7 800] ------- [0:255 -1:255 32 0] 
r 1.006453530 _12_ RTR  --- 0 SB 20 [0 ffffffff 7 800] ------- [0:255 -1:255 32 0] 
r 1.007207697 _3_ RTR  --- 0 SB 20 [0 ffffffff 4 800] ------- [0:255 -1:255 32 0] 
r 1.007207697 _1_ RTR  --- 0 SB 20 [0 ffffffff 4 800] ------- [0:255 -1:255 32 0] 
r 1.007207697 _5_ RTR  --- 0 SB 20 [0 ffffffff 4 800] ------- [0:255 -1:255 32 0] 
r 1.007207697 _8_ RTR  --- 0 SB 20 [0 ffffffff 4 800] ------- [0:255 -1:255 32 0] 
r 1.007207766 _2_ RTR  --- 0 SB 20 [0 ffffffff 4 800] ------- [0:255 -1:255 32 0] 
r 1.007207766 _7_ RTR  --- 0 SB 20 [0 ffffffff 4 800] ------- [0:255 -1:255 32 0] 
r 1.007207766 _9_ RTR  --- 0 SB 20 [0 ffffffff 4 800] ------- [0:255 -1:255 32 0] 
r 1.007961933 _8_ RTR  --- 0 SB 20 [0 ffffffff 9 800] ------- [0:255 -1:255 32 0] 
r 1.007961933 _5_ RTR  --- 0 SB 20 [0 ffffffff 9 800] ------- [0:255 -1:255 32 0] 
r 1.007961933 _10_ RTR  --- 0 SB 20 [0 ffffffff 9 800] ------- [0:255 -1:255 32 0] 
r 1.007961933 _13_ RTR  --- 0 SB 20 [0 ffffffff 9 800] ------- [0:255 -1:255 32 0] 
r 1.007962002 _6_ RTR  --- 0 SB 20 [0 ffffffff 9 800] ------- [0:255 -1:255 32 0] 
r 1.007962002 _4_ RTR  --- 0 SB 20 [0 ffffffff 9 800] ------- [0:255 -1:255 32 0] 
r 1.007962002 _12_ RTR  --- 0 SB 20 [0 ffffffff 9 800] ------- [0:255 -1:255 32 0] 
r 1.007962002 _14_ RTR  --- 0 SB 20 [0 ffffffff 9 800] ------- [0:255 -1:255 32 0] 
f 1.007962002 _14_ RTR  --- 0 SB 20 [0 ffffffff 9 800] ------- [0:255 -1:255 32 0] 
r 1.008696168 _11_ RTR  --- 0 SB 20 [0 ffffffff c 800] ------- [0:255 -1:255 32 0] 
r 1.008696168 _8_ RTR  --- 0 SB 20 [0 ffffffff c 800] ------- [0:255 -1:255 32 0] 
r 1.008696168 _13_ RTR  --- 0 SB 20 [0 ffffffff c 800] ------- [0:255 -1:255 32 0] 
r 1.008696168 _15_ RTR  --- 0 SB 20 [0 ffffffff c 800] ------- [0:255 -1:255 32 0] 
f 1.008696168 _15_ RTR  --- 0 SB 20 [0 ffffffff c 800] ------- [0:255 -1:255 32 0] 
r 1.008696238 _9_ RTR  --- 0 SB 20 [0 ffffffff c 800] ------- [0:255 -1:255 32 0] 
r 1.008696238 _7_ RTR  --- 0 SB 20 [0 ffffffff c 800] ------- [0:255 -1:255 32 0] 
r 1.008696238 _16_ RTR  --- 0 SB 20 [0 ffffffff c 800] ------- [0:255 -1:255 32 0] 
f 1.008696238 _16_ RTR  --- 0 SB 20 [0 ffffffff c 800] ------- [0:255 -1:255 32 0] 
r 1.009390335 _7_ RTR  --- 0 SB 20 [0 ffffffff b 800] ------- [0:255 -1:255 32 0] 
r 1.009390335 _12_ RTR  --- 0 SB 20 [0 ffffffff b 800] ------- [0:255 -1:255 32 0] 
r 1.009390404 _8_ RTR  --- 0 SB 20 [0 ffffffff b 800] ------- [0:255 -1:255 32 0] 
r 1.009390404 _15_ RTR  --- 0 SB 20 [0 ffffffff b 800] ------- [0:255 -1:255 32 0] 
r 1.010444571 _12_ RTR  --- 0 SB 20 [0 ffffffff f 800] ------- [0:255 -1:255 32 0] 
r 1.010444571 _16_ RTR  --- 0 SB 20 [0 ffffffff f 800] ------- [0:255 -1:255 32 0] 
r 1.010444599 _17_ RTR  --- 0 SB 20 [0 ffffffff f 800] ------- [0:255 -1:255 32 0] 
f 1.010444599 _17_ RTR  --- 0 SB 20 [0 ffffffff f 800] ------- [0:255 -1:255 32 0] 
r 1.010444640 _13_ RTR  --- 0 SB 20 [0 ffffffff f 800] ------- [0:255 -1:255 32 0] 
r 1.010444640 _11_ RTR  --- 0 SB 20 [0 ffffffff f 800] ------- [0:255 -1:255 32 0] 
r 1.011348778 _16_ RTR  --- 0 SB 20 [0 ffffffff 11 800] ------- [0:255 -1:255 32 0] 
r 1.011348793 _15_ RTR  --- 0 SB 20 [0 ffffffff 11 800] ------- [0:255 -1:255 32 0] 
r 1.012362945 _15_ RTR  --- 0 SB 20 [0 ffffffff 10 800] ------- [0:255 -1:255 32 0] 
r 1.012362945 _13_ RTR  --- 0 SB 20 [0 ffffffff 10 800] ------- [0:255 -1:255 32 0] 
r 1.012362958 _17_ RTR  --- 0 SB 20 [0 ffffffff 10 800] ------- [0:255 -1:255 32 0] 
r 1.012363014 _14_ RTR  --- 0 SB 20 [0 ffffffff 10 800] ------- [0:255 -1:255 32 0] 
r 1.012363014 _12_ RTR  --- 0 SB 20 [0 ffffffff 10 800] ------- [0:255 -1:255 32 0] 
r 1.013137111 _12_ RTR  --- 0 SB 20 [0 ffffffff d 800] ------- [0:255 -1:255 32 0] 
r 1.013137111 _9_ RTR  --- 0 SB 20 [0 ffffffff d 800] ------- [0:255 -1:255 32 0] 
r 1.013137111 _14_ RTR  --- 0 SB 20 [0 ffffffff d 800] ------- [0:255 -1:255 32 0] 
r 1.013137111 _16_ RTR  --- 0 SB 20 [0 ffffffff d 800] ------- [0:255 -1:255 32 0] 
r 1.013137180 _10_ RTR  --- 0 SB 20 [0 ffffffff d 800] ------- [0:255 -1:255 32 0] 
r 1.013137180 _8_ RTR  --- 0 SB 20 [0 ffffffff d 800] ------- [0:255 -1:255 32 0] 
r 1.013137180 _15_ RTR  --- 0 SB 20 [0 ffffffff d 800] ------- [0:255 -1:255 32 0] 
r 1.013971347 _9_ RTR  --- 0 SB 20 [0 ffffffff a 800] ------- [0:255 -1:255 32 0] 
r 1.013971347 _6_ RTR  --- 0 SB 20 [0 ffffffff a 800] ------- [0:255 -1:255 32 0] 
r 1.013971347 _14_ RTR  --- 0 SB 20 [0 ffffffff a 800] ------- [0:255 -1:255 32 0] 
r 1.013971416 _5_ RTR  --- 0 SB 20 [0 ffffffff a 800] ------- [0:255 -1:255 32 0] 
r 1.013971416 _13_ RTR  --- 0 SB 20 [0 ffffffff a 800] ------- [0:255 -1:255 32 0] 
r 1.014925514 _13_ RTR  --- 0 SB 20 [0 ffffffff e 800] ------- [0:255 -1:255 32 0] 
r 1.014925514 _10_ RTR  --- 0 SB 20 [0 ffffffff e 800] ------- [0:255 -1:255 32 0] 
r 1.014925583 _9_ RTR  --- 0 SB 20 [0 ffffffff e 800] ------- [0:255 -1:255 32 0] 
r 1.014925583 _16_ RTR  --- 0 SB 20 [0 ffffffff e 800] ------- [0:255 -1:255 32 0] 
r 1.016084115 _4_ RTR  --- 0 SB 20 [0 ffffffff 3 800] ------- [0:255 -1:255 32 0] 
r 1.016084115 _7_ RTR  --- 0 SB 20 [0 ffffffff 3 800] ------- [0:255 -1:255 32 0] 
r 1.016084184 _1_ RTR  --- 0 SB 20 [0 ffffffff 3 800] ------- [0:255 -1:255 32 0] 
r 1.016084184 _8_ RTR  --- 0 SB 20 [0 ffffffff 3 800] ------- [0:255 -1:255 32 0] 
s 1.250000000 _0_ RTR  --- 0 SB 20 [0 0 0 0] ------- [0:255 -1:255 32 0] 
r 1.251124186 _1_ RTR  --- 0 SB 20 [0 ffffffff 0 800] ------- [0:255 -1:255 32 0] 
r 1.251124186 _2_ RTR  --- 0 SB 20 [0 ffffffff 0 800] ------- [0:255 -1:255 32 0] 
s 1.500000000 _0_ RTR  --- 0 SB 20 [0 0 0 0] ------- [0:255 -1:255 32 0] 
r 1.500924186 _1_ RTR  --- 0 SB 20 [0 ffffffff 0 800] ------- [0:255 -1:255 32 0] 
s 1.500924186 _1_ RTR  --- 0 SB 20 [0 0 0 0] ------- [1:255 -1:255 32 0] 
r 1.500924186 _2_ RTR  --- 0 SB 20 [0 ffffffff 0 800] ------- [0:255 -1:255 32 0] 
s 1.500924186 _2_ RTR  --- 0 SB 20 [0 0 0 0] ------- [2:255 -1:255 32 0] 
r 1.501728353 _1_ RTR  --- 0 SB 20 [0 ffffffff 2 800] ------- [2:255 -1:255 32 0] 
s 1.501728353 _1_ RTR  --- 0 SB 20 [0 0 0 0] ------- [1:255 -1:255 32 0] 
r 1.501728353 _5_ RTR  --- 0 SB 20 [0 ffffffff 2 800] ------- [2:255 -1:255 32 0] 
r 1.501728373 _0_ RTR  --- 0 SB 20 [0 ffffffff 2 800] ------- [2:255 -1:255 32 0] 
r 1.501728422 _4_ RTR  --- 0 SB 20 [0 ffffffff 2 800] ------- [2:255 -1:255 32 0] 
r 1.501728422 _6_ RTR  --- 0 SB 20 [0 ffffffff 2 800] ------- [2:255 -1:255 32 0] 
r 1.502562520 _2_ RTR  --- 0 SB 20 [0 ffffffff 1 800] ------- [1:255 -1:255 32 0] 
s 1.502562520 _2_ RTR  --- 0 SB 20 [0 0 0 0] ------- [2:255 -1:255 32 0] 
r 1.502562520 _4_ RTR  --- 0 SB 20 [0 ffffffff 1 800] ------- [1:255 -1:255 32 0] 
s 1.502562520 _4_ RTR  --- 0 SB 20 [0 0 0 0] ------- [4:255 -1:255 32 0] 
r 1.502562539 _0_ RTR  --- 0 SB 20 [0 ffffffff 1 800] ------- [1:255 -1:255 32 0] 
r 1.502562589 _3_ RTR  --- 0 SB 20 [0 ffffffff 1 800] ------- [1:255 -1:255 32 0] 
r 1.502562589 _5_ RTR  --- 0 SB 20 [0 ffffffff 1 800] ------- [1:255 -1:255 32 0] 
s 1.502562589 _5_ RTR  --- 0 SB 20 [0 0 0 0] ------- [5:255 -1:255 32 0] 
r 1.503416520 _2_ RTR  --- 0 SB 20 [0 ffffffff 1 800] ------- [1:255 -1:255 32 0] 
s 1.503416520 _2_ RTR  --- 0 SB 20 [0 0 0 0] ------- [2:255 -1:255 32 0] 
r 1.503416520 _4_ RTR  --- 0 SB 20 [0 ffffffff 1 800] ------- [1:255 -1:255 32 0] 
s 1.503416520 _4_ RTR  --- 0 SB 20 [0 0 0 0] ------- [4:255 -1:255 32 0] 
r 1.503416539 _0_ RTR  --- 0 SB 20 [0 ffffffff 1 800] ------- [1:255 -1:255 32 0] 
r 1.503416589 _3_ RTR  --- 0 SB 20 [0 ffffffff 1 800] ------- [1:255 -1:255 32 0] 
s 1.503416589 _3_ RTR  --- 0 SB 20 [0 0 0 0] ------- [3:255 -1:255 32 0] 
r 1.503416589 _5_ RTR  --- 0 SB 20 [0 ffffffff 1 800] ------- [1:255 -1:255 32 0] 
s 1.503416589 _5_ RTR  --- 0 SB 20 [0 0 0 0] ------- [5:255 -1:255 32 0] 
r 1.504170686 _1_ RTR  --- 0 SB 20 [0 ffffffff 2 800] ------- [2:255 -1:255 32 0] 
s 1.504170686 _1_ RTR  --- 0 SB 20 [0 0 0 0] ------- [1:255 -1:255 32 0] 
r 1.504170686 _5_ RTR  --- 0 SB 20 [0 ffffffff 2 800] ------- [2:255 -1:255 32 0] 
s 1.504170686 _5_ RTR  --- 0 SB 20 [0 0 0 0] ------- [5:255 -1:255 32 0] 
r 1.504170706 _0_ RTR  --- 0 SB 20 [0 ffffffff 2 800] ------- [2:255 -1:255 32 0] 
r 1.504170755 _4_ RTR  --- 0 SB 20 [0 ffffffff 2 800] ------- [2:255 -1:255 32 0] 
s 1.504170755 _4_ RTR  --- 0 SB 20 [0 0 0 0] ------- [4:255 -1:255 32 0] 
r 1.504170755 _6_ RTR  --- 0 SB 20 [0 ffffffff 2 800] ------- [2:255 -1:255 32 0] 
s 1.504170755 _6_ RTR  --- 0 SB 20 [0 0 0 0] ------- [6:255 -1:255 32 0] 
r 1.504844686 _1_ RTR  --- 0 SB 20 [0 ffffffff 2 800] ------- [2:255 -1:255 32 0] 
r 1.504844686 _5_ RTR  --- 0 SB 20 [0 ffffffff 2 800] ------- [2:255 -1:255 32 0] 
r 1.504844706 _0_ RTR  --- 0 SB 20 [0 ffffffff 2 800] ------- [2:255 -1:255 32 0] 
r 1.504844755 _4_ RTR  --- 0 SB 20 [0 ffffffff 2 800] ------- [2:255 -1:255 32 0] 
r 1.504844755 _6_ RTR  --- 0 SB 20 [0 ffffffff 2 800] ------- [2:255 -1:255 32 0] 
r 1.505538922 _5_ RTR  --- 0 SB 20 [0 ffffffff 6 800] ------- [6:255 -1:255 32 0] 
r 1.505538922 _10_ RTR  --- 0 SB 20 [0 ffffffff 6 800] ------- [6:255 -1:255 32 0] 
r 1.505538991 _2_ RTR  --- 0 SB 20 [0 ffffffff 6 800] ------- [6:255 -1:255 32 0] 
r 1.505538991 _9_ RTR  --- 0 SB 20 [0 ffffffff 6 800] ------- [6:255 -1:255 32 0] 
r 1.506393089 _4_ RTR  --- 0 SB 20 [0 ffffffff 5 800] ------- [5:255 -1:255 32 0] 
s 1.506393089 _4_ RTR  --- 0 SB 20 [0 0 0 0] ------- [4:255 -1:255 32 0] 
r 1.506393089 _2_ RTR  --- 0 SB 20 [0 ffffffff 5 800] ------- [5:255 -1:255 32 0] 
s 1.506393089 _2_ RTR  --- 0 SB 20 [0 0 0 0] ------- [2:255 -1:255 32 0] 
r 1.506393089 _6_ RTR  --- 0 SB 20 [0 ffffffff 5 800] ------- [5:255 -1:255 32 0] 
s 1.506393089 _6_ RTR  --- 0 SB 20 [0 0 0 0] ------- [6:255 -1:255 32 0] 
r 1.506393089 _9_ RTR  --- 0 SB 20 [0 ffffffff 5 800] ------- [5:255 -1:255 32 0] 
s 1.506393089 _9_ RTR  --- 0 SB 20 [0 0 0 0] ------- [9:255 -1:255 32 0] 
r 1.506393158 _1_ RTR  --- 0 SB 20 [0 ffffffff 5 800] ------- [5:255 -1:255 32 0] 
s 1.506393158 _1_ RTR  --- 0 SB 20 [0 0 0 0] ------- [1:255 -1:255 32 0] 
r 1.506393158 _8_ RTR  --- 0 SB 20 [0 ffffffff 5 800] ------- [5:255 -1:255 32 0] 
r 1.506393158 _10_ RTR  --- 0 SB 20 [0 ffffffff 5 800] ------- [5:255 -1:255 32 0] 
s 1.506393158 _10_ RTR  --- 0 SB 20 [0 0 0 0] ------- [10:255 -1:255 32 0] 
r 1.507127255 _5_ RTR  --- 0 SB 20 [0 ffffffff 6 800] ------- [6:255 -1:255 32 0] 
r 1.507127255 _10_ RTR  --- 0 SB 20 [0 ffffffff 6 800] ------- [6:255 -1:255 32 0] 
r 1.507127324 _2_ RTR  --- 0 SB 20 [0 ffffffff 6 800] ------- [6:255 -1:255 32 0] 
r 1.507127324 _9_ RTR  --- 0 SB 20 [0 ffffffff 6 800] ------- [6:255 -1:255 32 0] 
r 1.508041491 _1_ RTR  --- 0 SB 20 [0 ffffffff 2 800] ------- [2:255 -1:255 32 0] 
r 1.508041491 _5_ RTR  --- 0 SB 20 [0 ffffffff 2 800] ------- [2:255 -1:255 32 0] 
r 1.508041511 _0_ RTR  --- 0 SB 20 [0 ffffffff 2 800] ------- [2:255 -1:255 32 0] 
r 1.508041560 _4_ RTR  --- 0 SB 20 [0 ffffffff 2 800] ------- [2:255 -1:255 32 0] 
r 1.508041560 _6_ RTR  --- 0 SB 20 [0 ffffffff 2 800] ------- [2:255 -1:255 32 0] 
r 1.508855727 _3_ RTR  --- 0 SB 20 [0 ffffffff 4 800] ------- [4:255 -1:255 32 0] 
s 1.508855727 _3_ RTR  --- 0 SB 20 [0 0 0 0] ------- [3:255 -1:255 32 0] 
r 1.508855727 _1_ RTR  --- 0 SB 20 [0 ffffffff 4 800] ------- [4:255 -1:255 32 0] 
s 1.508855727 _1_ RTR  --- 0 SB 20 [0 0 0 0] ------- [1:255 -1:255 32 0] 
r 1.508855727 _5_ RTR  --- 0 SB 20 [0 ffffffff 4 800] ------- [4:255 -1:255 32 0] 
s 1.508855727 _5_ RTR  --- 0 SB 20 [0 0 0 0] ------- [5:255 -1:255 32 0] 
r 1.508855727 _8_ RTR  --- 0 SB 20 [0 ffffffff 4 800] ------- [4:255 -1:255 32 0] 
s 1.508855727 _8_ RTR  --- 0 SB 20 [0 0 0 0] ------- [8:255 -1:255 32 0] 
r 1.508855796 _2_ RTR  --- 0 SB 20 [0 ffffffff 4 800] ------- [4:255 -1:255 32 0] 
s 1.508855796 _2_ RTR  --- 0 SB 20 [0 0 0 0] ------- [2:255 -1:255 32 0] 
r 1.508855796 _7_ RTR  --- 0 SB 20 [0 ffffffff 4 800] ------- [4:255 -1:255 32 0] 
r 1.508855796 _9_ RTR  --- 0 SB 20 [0 ffffffff 4 800] ------- [4:255 -1:255 32 0] 
s 1.508855796 _9_ RTR  --- 0 SB 20 [0 0 0 0] ------- [9:255 -1:255 32 0] 
r 1.509549962 _1_ RTR  --- 0 SB 20 [0 ffffffff 2 800] ------- [2:255 -1:255 32 0] 
r 1.509549962 _5_ RTR  --- 0 SB 20 [0 ffffffff 2 800] ------- [2:255 -1:255 32 0] 
r 1.509549982 _0_ RTR  --- 0 SB 20 [0 ffffffff 2 800] ------- [2:255 -1:255 32 0] 
r 1.509550032 _4_ RTR  --- 0 SB 20 [0 ffffffff 2 800] ------- [2:255 -1:255 32 0] 
r 1.509550032 _6_ RTR  --- 0 SB 20 [0 ffffffff 2 800] ------- [2:255 -1:255 32 0] 
r 1.510244129 _2_ RTR  --- 0 SB 20 [0 ffffffff 1 800] ------- [1:255 -1:255 32 0] 
r 1.510244129 _4_ RTR  --- 0 SB 20 [0 ffffffff 1 800] ------- [1:255 -1:255 32 0] 
r 1.510244149 _0_ RTR  --- 0 SB 20 [0 ffffffff 1 800] ------- [1:255 -1:255 32 0] 
r 1.510244198 _3_ RTR  --- 0 SB 20 [0 ffffffff 1 800] ------- [1:255 -1:255 32 0] 
r 1.510244198 _5_ RTR  --- 0 SB 20 [0 ffffffff 1 800] ------- [1:255 -1:255 32 0] 
r 1.510998365 _4_ RTR  --- 0 SB 20 [0 ffffffff 3 800] ------- [3:255 -1:255 32 0] 
r 1.510998365 _7_ RTR  --- 0 SB 20 [0 ffffffff 3 800] ------- [3:255 -1:255 32 0] 
r 1.510998434 _1_ RTR  --- 0 SB 20 [0 ffffffff 3 800] ------- [3:255 -1:255 32 0] 
r 1.510998434 _8_ RTR  --- 0 SB 20 [0 ffffffff 3 800] ------- [3:255 -1:255 32 0] 
r 1.511752601 _7_ RTR  --- 0 SB 20 [0 ffffffff 8 800] ------- [8:255 -1:255 32 0] 
r 1.511752601 _4_ RTR  --- 0 SB 20 [0 ffffffff 8 800] ------- [8:255 -1:255 32 0] 
r 1.511752601 _9_ RTR  --- 0 SB 20 [0 ffffffff 8 800] ------- [8:255 -1:255 32 0] 
r 1.511752601 _12_ RTR  --- 0 SB 20 [0 ffffffff 8 800] ------- [8:255 -1:255 32 0] 
r 1.511752670 _5_ RTR  --- 0 SB 20 [0 ffffffff 8 800] ------- [8:255 -1:255 32 0] 
r 1.511752670 _3_ RTR  --- 0 SB 20 [0 ffffffff 8 800] ------- [8:255 -1:255 32 0] 
r 1.511752670 _11_ RTR  --- 0 SB 20 [0 ffffffff 8 800] ------- [8:255 -1:255 32 0] 
r 1.511752670 _13_ RTR  --- 0 SB 20 [0 ffffffff 8 800] ------- [8:255 -1:255 32 0] 
r 1.512446836 _6_ RTR  --- 0 SB 20 [0 ffffffff 5 800] ------- [5:255 -1:255 32 0] 
r 1.512446905 _10_ RTR  --- 0 SB 20 [0 ffffffff 5 800] ------- [5:255 -1:255 32 0] 
r 1.513545170 _4_ RTR  --- 0 SB 20 [0 ffffffff 5 800] ------- [5:255 -1:255 32 0] 
r 1.513545170 _2_ RTR  --- 0 SB 20 [0 ffffffff 5 800] ------- [5:255 -1:255 32 0] 
r 1.513545170 _6_ RTR  --- 0 SB 20 [0 ffffffff 5 800] ------- [5:255 -1:255 32 0] 
r 1.513545170 _9_ RTR  --- 0 SB 20 [0 ffffffff 5 800] ------- [5:255 -1:255 32 0] 
r 1.513545239 _1_ RTR  --- 0 SB 20 [0 ffffffff 5 800] ------- [5:255 -1:255 32 0] 
r 1.513545239 _8_ RTR  --- 0 SB 20 [0 ffffffff 5 800] ------- [5:255 -1:255 32 0] 
r 1.513545239 _10_ RTR  --- 0 SB 20 [0 ffffffff 5 800] ------- [5:255 -1:255 32 0] 
r 1.514239336 _8_ RTR  --- 0 SB 20 [0 ffffffff 9 800] ------- [9:255 -1:255 32 0] 
r 1.514239336 _5_ RTR  --- 0 SB 20 [0 ffffffff 9 800] ------- [9:255 -1:255 32 0] 
r 1.514239336 _10_ RTR  --- 0 SB 20 [0 ffffffff 9 800] ------- [9:255 -1:255 32 0] 
r 1.514239336 _13_ RTR  --- 0 SB 20 [0 ffffffff 9 800] ------- [9:255 -1:255 32 0] 
r 1.514239405 _6_ RTR  --- 0 SB 20 [0 ffffffff 9 800] ------- [9:255 -1:255 32 0] 
r 1.514239405 _4_ RTR  --- 0 SB 20 [0 ffffffff 9 800] ------- [9:255 -1:255 32 0] 
r 1.514239405 _12_ RTR  --- 0 SB 20 [0 ffffffff 9 800] ------- [9:255 -1:255 32 0] 
r 1.514239405 _14_ RTR  --- 0 SB 20 [0 ffffffff 9 800] ------- [9:255 -1:255 32 0] 
r 1.514933503 _4_ RTR  --- 0 SB 20 [0 ffffffff 5 800] ------- [5:255 -1:255 32 0] 
r 1.514933503 _2_ RTR  --- 0 SB 20 [0 ffffffff 5 800] ------- [5:255 -1:255 32 0] 
r 1.514933503 _6_ RTR  --- 0 SB 20 [0 ffffffff 5 800] ------- [5:255 -1:255 32 0] 
r 1.514933503 _9_ RTR  --- 0 SB 20 [0 ffffffff 5 800] ------- [5:255 -1:255 32 0] 
r 1.514933572 _1_ RTR  --- 0 SB 20 [0 ffffffff 5 800] ------- [5:255 -1:255 32 0] 
r 1.514933572 _8_ RTR  --- 0 SB 20 [0 ffffffff 5 800] ------- [5:255 -1:255 32 0] 
r 1.514933572 _10_ RTR  --- 0 SB 20 [0 ffffffff 5 800] ------- [5:255 -1:255 32 0] 
r 1.515727670 _3_ RTR  --- 0 SB 20 [0 ffffffff 4 800] ------- [4:255 -1:255 32 0] 
r 1.515727670 _1_ RTR  --- 0 SB 20 [0 ffffffff 4 800] ------- [4:255 -1:255 32 0] 
r 1.515727739 _7_ RTR  --- 0 SB 20 [0 ffffffff 4 800] ------- [4:255 -1:255 32 0] 
r 1.515727739 _14_ RTR  --- 0 SB 20 [0 ffffffff a 800] ------- [10:255 -1:255 32 0] 
r 1.516786210 _2_ RTR  --- 0 SB 20 [0 ffffffff 1 800] ------- [1:255 -1:255 32 0] 
r 1.516786210 _4_ RTR  --- 0 SB 20 [0 ffffffff 1 800] ------- [1:255 -1:255 32 0] 
r 1.516786230 _0_ RTR  --- 0 SB 20 [0 ffffffff 1 800] ------- [1:255 -1:255 32 0] 
r 1.516786279 _3_ RTR  --- 0 SB 20 [0 ffffffff 1 800] ------- [1:255 -1:255 32 0] 
r 1.516786279 _5_ RTR  --- 0 SB 20 [0 ffffffff 1 800] ------- [1:255 -1:255 32 0] 
r 1.517920377 _3_ RTR  --- 0 SB 20 [0 ffffffff 4 800] ------- [4:255 -1:255 32 0] 
r 1.517920377 _1_ RTR  --- 0 SB 20 [0 ffffffff 4 800] ------- [4:255 -1:255 32 0] 
r 1.517920377 _5_ RTR  --- 0 SB 20 [0 ffffffff 4 800] ------- [4:255 -1:255 32 0] 
r 1.517920377 _8_ RTR  --- 0 SB 20 [0 ffffffff 4 800] ------- [4:255 -1:255 32 0] 
r 1.517920446 _2_ RTR  --- 0 SB 20 [0 ffffffff 4 800] ------- [4:255 -1:255 32 0] 
r 1.517920446 _7_ RTR  --- 0 SB 20 [0 ffffffff 4 800] ------- [4:255 -1:255 32 0] 
r 1.517920446 _9_ RTR  --- 0 SB 20 [0 ffffffff 4 800] ------- [4:255 -1:255 32 0] 
r 1.518694543 _2_ RTR  --- 0 SB 20 [0 ffffffff 1 800] ------- [1:255 -1:255 32 0] 
r 1.518694543 _4_ RTR  --- 0 SB 20 [0 ffffffff 1 800] ------- [1:255 -1:255 32 0] 
r 1.518694563 _0_ RTR  --- 0 SB 20 [0 ffffffff 1 800] ------- [1:255 -1:255 32 0] 
r 1.518694612 _3_ RTR  --- 0 SB 20 [0 ffffffff 1 800] ------- [1:255 -1:255 32 0] 
r 1.518694612 _5_ RTR  --- 0 SB 20 [0 ffffffff 1 800] ------- [1:255 -1:255 32 0] 
r 1.519428710 _3_ RTR  --- 0 SB 20 [0 ffffffff 4 800] ------- [4:255 -1:255 32 0] 
r 1.519428710 _1_ RTR  --- 0 SB 20 [0 ffffffff 4 800] ------- [4:255 -1:255 32 0] 
r 1.519428710 _5_ RTR  --- 0 SB 20 [0 ffffffff 4 800] ------- [4:255 -1:255 32 0] 
r 1.519428710 _8_ RTR  --- 0 SB 20 [0 ffffffff 4 800] ------- [4:255 -1:255 32 0] 
r 1.519428779 _2_ RTR  --- 0 SB 20 [0 ffffffff 4 800] ------- [4:255 -1:255 32 0] 
r 1.519428779 _7_ RTR  --- 0 SB 20 [0 ffffffff 4 800] ------- [4:255 -1:255 32 0] 
r 1.519428779 _9_ RTR  --- 0 SB 20 [0 ffffffff 4 800] ------- [4:255 -1:255 32 0] 
r 1.520262946 _8_ RTR  --- 0 SB 20 [0 ffffffff 9 800] ------- [9:255 -1:255 32 0] 
r 1.520262946 _5_ RTR  --- 0 SB 20 [0 ffffffff 9 800] ------- [9:255 -1:255 32 0] 
r 1.520262946 _10_ RTR  --- 0 SB 20 [0 ffffffff 9 800] ------- [9:255 -1:255 32 0] 
r 1.520262946 _13_ RTR  --- 0 SB 20 [0 ffffffff 9 800] ------- [9:255 -1:255 32 0] 
r 1.520263015 _6_ RTR  --- 0 SB 20 [0 ffffffff 9 800] ------- [9:255 -1:255 32 0] 
r 1.520263015 _4_ RTR  --- 0 SB 20 [0 ffffffff 9 800] ------- [9:255 -1:255 32 0] 
r 1.520263015 _12_ RTR  --- 0 SB 20 [0 ffffffff 9 800] ------- [9:255 -1:255 32 0] 
r 1.520263015 _14_ RTR  --- 0 SB 20 [0 ffffffff 9 800] ------- [9:255 -1:255 32 0] 
s 1.750000000 _0_ RTR  --- 0 SB 20 [0 0 0 0] ------- [0:255 -1:255 32 0] 
r 1.751224186 _1_ RTR  --- 0 SB 20 [0 ffffffff 0 800] ------- [0:255 -1:255 32 0] 
r 1.751224186 _2_ RTR  --- 0 SB 20 [0 ffffffff 0 800] ------- [0:255 -1:255 32 0] 
M 2.00000 7 (150.00, 250.00, 0.00), (150.00, 50.00), 16.60
M 2.00000 8 (150.00, 200.00, 0.00), (150.00, 300.00), 16.60
M 2.00000 9 (150.00, 150.00, 0.00), (150.00, 50.00), 16.60
M 2.00000 10 (150.00, 100.00, 0.00), (150.00, 300.00), 16.60
M 2.00000 11 (200.00, 250.00, 0.00), (200.00, 300.00), 16.60
M 2.00000 12 (200.00, 200.00, 0.00), (200.00, 50.00), 16.60
M 2.00000 13 (200.00, 150.00, 0.00), (200.00, 300.00), 16.60
M 2.00000 14 (200.00, 100.00, 0.00), (200.00, 50.00), 16.60
s 2.000000000 _0_ RTR  --- 0 SB 20 [0 0 0 0] ------- [0:255 -1:255 32 0] 
r 2.001324186 _1_ RTR  --- 0 SB 20 [0 ffffffff 0 800] ------- [0:255 -1:255 32 0] 
s 2.001324186 _1_ RTR  --- 0 SB 20 [0 0 0 0] ------- [1:255 -1:255 32 0] 
r 2.001324186 _2_ RTR  --- 0 SB 20 [0 ffffffff 0 800] ------- [0:255 -1:255 32 0] 
s 2.001324186 _2_ RTR  --- 0 SB 20 [0 0 0 0] ------- [2:255 -1:255 32 0] 
r 2.002548353 _2_ RTR  --- 0 SB 20 [0 ffffffff 1 800] ------- [1:255 -1:255 32 0] 
s 2.002548353 _2_ RTR  --- 0 SB 20 [0 0 0 0] ------- [2:255 -1:255 32 0] 
r 2.002548353 _4_ RTR  --- 0 SB 20 [0 ffffffff 1 800] ------- [1:255 -1:255 32 0] 
r 2.002548373 _0_ RTR  --- 0 SB 20 [0 ffffffff 1 800] ------- [1:255 -1:255 32 0] 
r 2.002548422 _3_ RTR  --- 0 SB 20 [0 ffffffff 1 800] ------- [1:255 -1:255 32 0] 
r 2.002548422 _5_ RTR  --- 0 SB 20 [0 ffffffff 1 800] ------- [1:255 -1:255 32 0] 
r 2.003242520 _1_ RTR  --- 0 SB 20 [0 ffffffff 2 800] ------- [2:255 -1:255 32 0] 
s 2.003242520 _1_ RTR  --- 0 SB 20 [0 0 0 0] ------- [1:255 -1:255 32 0] 
r 2.003242520 _5_ RTR  --- 0 SB 20 [0 ffffffff 2 800] ------- [2:255 -1:255 32 0] 
s 2.003242520 _5_ RTR  --- 0 SB 20 [0 0 0 0] ------- [5:255 -1:255 32 0] 
r 2.003242539 _0_ RTR  --- 0 SB 20 [0 ffffffff 2 800] ------- [2:255 -1:255 32 0] 
r 2.003242589 _4_ RTR  --- 0 SB 20 [0 ffffffff 2 800] ------- [2:255 -1:255 32 0] 
s 2.003242589 _4_ RTR  --- 0 SB 20 [0 0 0 0] ------- [4:255 -1:255 32 0] 
r 2.003242589 _6_ RTR  --- 0 SB 20 [0 ffffffff 2 800] ------- [2:255 -1:255 32 0] 
r 2.003936520 _1_ RTR  --- 0 SB 20 [0 ffffffff 2 800] ------- [2:255 -1:255 32 0] 
s 2.003936520 _1_ RTR  --- 0 SB 20 [0 0 0 0] ------- [1:255 -1:255 32 0] 
r 2.003936520 _5_ RTR  --- 0 SB 20 [0 ffffffff 2 800] ------- [2:255 -1:255 32 0] 
s 2.003936520 _5_ RTR  --- 0 SB 20 [0 0 0 0] ------- [5:255 -1:255 32 0] 
r 2.003936539 _0_ RTR  --- 0 SB 20 [0 ffffffff 2 800] ------- [2:255 -1:255 32 0] 
r 2.003936589 _4_ RTR  --- 0 SB 20 [0 ffffffff 2 800] ------- [2:255 -1:255 32 0] 
s 2.003936589 _4_ RTR  --- 0 SB 20 [0 0 0 0] ------- [4:255 -1:255 32 0] 
r 2.003936589 _6_ RTR  --- 0 SB 20 [0 ffffffff 2 800] ------- [2:255 -1:255 32 0] 
s 2.003936589 _6_ RTR  --- 0 SB 20 [0 0 0 0] ------- [6:255 -1:255 32 0] 
r 2.004740755 _5_ RTR  --- 0 SB 20 [0 ffffffff 6 800] ------- [6:255 -1:255 32 0] 
r 2.004740755 _10_ RTR  --- 0 SB 20 [0 ffffffff 6 800] ------- [6:255 -1:255 32 0] 
r 2.004740824 _9_ RTR  --- 0 SB 20 [0 ffffffff 6 800] ------- [6:255 -1:255 32 0] 
r 2.004740824 _2_ RTR  --- 0 SB 20 [0 ffffffff 6 800] ------- [6:255 -1:255 32 0] 
r 2.005774922 _4_ RTR  --- 0 SB 20 [0 ffffffff 5 800] ------- [5:255 -1:255 32 0] 
s 2.005774922 _4_ RTR  --- 0 SB 20 [0 0 0 0] ------- [4:255 -1:255 32 0] 
r 2.005774922 _2_ RTR  --- 0 SB 20 [0 ffffffff 5 800] ------- [5:255 -1:255 32 0] 
s 2.005774922 _2_ RTR  --- 0 SB 20 [0 0 0 0] ------- [2:255 -1:255 32 0] 
r 2.005774922 _6_ RTR  --- 0 SB 20 [0 ffffffff 5 800] ------- [5:255 -1:255 32 0] 
s 2.005774922 _6_ RTR  --- 0 SB 20 [0 0 0 0] ------- [6:255 -1:255 32 0] 
r 2.005774922 _9_ RTR  --- 0 SB 20 [0 ffffffff 5 800] ------- [5:255 -1:255 32 0] 
s 2.005774922 _9_ RTR  --- 0 SB 20 [0 0 0 0] ------- [9:255 -1:255 32 0] 
r 2.005774991 _10_ RTR  --- 0 SB 20 [0 ffffffff 5 800] ------- [5:255 -1:255 32 0] 
s 2.005774991 _10_ RTR  --- 0 SB 20 [0 0 0 0] ------- [10:255 -1:255 32 0] 
r 2.005774991 _1_ RTR  --- 0 SB 20 [0 ffffffff 5 800] ------- [5:255 -1:255 32 0] 
s 2.005774991 _1_ RTR  --- 0 SB 20 [0 0 0 0] ------- [1:255 -1:255 32 0] 
r 2.005774991 _8_ RTR  --- 0 SB 20 [0 ffffffff 5 800] ------- [5:255 -1:255 32 0] 
r 2.006499089 _1_ RTR  --- 0 SB 20 [0 ffffffff 2 800] ------- [2:255 -1:255 32 0] 
r 2.006499089 _5_ RTR  --- 0 SB 20 [0 ffffffff 2 800] ------- [2:255 -1:255 32 0] 
r 2.006499108 _0_ RTR  --- 0 SB 20 [0 ffffffff 2 800] ------- [2:255 -1:255 32 0] 
r 2.006499158 _4_ RTR  --- 0 SB 20 [0 ffffffff 2 800] ------- [2:255 -1:255 32 0] 
r 2.006499158 _6_ RTR  --- 0 SB 20 [0 ffffffff 2 800] ------- [2:255 -1:255 32 0] 
r 2.007253324 _5_ RTR  --- 0 SB 20 [0 ffffffff 6 800] ------- [6:255 -1:255 32 0] 
r 2.007253324 _10_ RTR  --- 0 SB 20 [0 ffffffff 6 800] ------- [6:255 -1:255 32 0] 
r 2.007253393 _9_ RTR  --- 0 SB 20 [0 ffffffff 6 800] ------- [6:255 -1:255 32 0] 
r 2.007253393 _2_ RTR  --- 0 SB 20 [0 ffffffff 6 800] ------- [6:255 -1:255 32 0] 
r 2.008247559 _10_ RTR  --- 0 SB 20 [0 ffffffff 9 800] ------- [9:255 -1:255 32 0] 
r 2.008247560 _5_ RTR  --- 0 SB 20 [0 ffffffff 9 800] ------- [9:255 -1:255 32 0] 
r 2.008247560 _13_ RTR  --- 0 SB 20 [0 ffffffff 9 800] ------- [9:255 -1:255 32 0] 
r 2.008247561 _8_ RTR  --- 0 SB 20 [0 ffffffff 9 800] ------- [9:255 -1:255 32 0] 
r 2.008247629 _6_ RTR  --- 0 SB 20 [0 ffffffff 9 800] ------- [9:255 -1:255 32 0] 
r 2.008247629 _12_ RTR  --- 0 SB 20 [0 ffffffff 9 800] ------- [9:255 -1:255 32 0] 
r 2.008247629 _14_ RTR  --- 0 SB 20 [0 ffffffff 9 800] ------- [9:255 -1:255 32 0] 
r 2.008247629 _4_ RTR  --- 0 SB 20 [0 ffffffff 9 800] ------- [9:255 -1:255 32 0] 
r 2.008981727 _4_ RTR  --- 0 SB 20 [0 ffffffff 5 800] ------- [5:255 -1:255 32 0] 
r 2.008981727 _2_ RTR  --- 0 SB 20 [0 ffffffff 5 800] ------- [5:255 -1:255 32 0] 
r 2.008981727 _6_ RTR  --- 0 SB 20 [0 ffffffff 5 800] ------- [5:255 -1:255 32 0] 
r 2.008981727 _9_ RTR  --- 0 SB 20 [0 ffffffff 5 800] ------- [5:255 -1:255 32 0] 
r 2.008981795 _10_ RTR  --- 0 SB 20 [0 ffffffff 5 800] ------- [5:255 -1:255 32 0] 
r 2.008981796 _1_ RTR  --- 0 SB 20 [0 ffffffff 5 800] ------- [5:255 -1:255 32 0] 
r 2.008981796 _8_ RTR  --- 0 SB 20 [0 ffffffff 5 800] ------- [5:255 -1:255 32 0] 
r 2.009795962 _2_ RTR  --- 0 SB 20 [0 ffffffff 1 800] ------- [1:255 -1:255 32 0] 
s 2.009795962 _2_ RTR  --- 0 SB 20 [0 0 0 0] ------- [2:255 -1:255 32 0] 
r 2.009795962 _4_ RTR  --- 0 SB 20 [0 ffffffff 1 800] ------- [1:255 -1:255 32 0] 
s 2.009795962 _4_ RTR  --- 0 SB 20 [0 0 0 0] ------- [4:255 -1:255 32 0] 
r 2.009795982 _0_ RTR  --- 0 SB 20 [0 ffffffff 1 800] ------- [1:255 -1:255 32 0] 
r 2.009796031 _3_ RTR  --- 0 SB 20 [0 ffffffff 1 800] ------- [1:255 -1:255 32 0] 
s 2.009796031 _3_ RTR  --- 0 SB 20 [0 0 0 0] ------- [3:255 -1:255 32 0] 
r 2.009796031 _5_ RTR  --- 0 SB 20 [0 ffffffff 1 800] ------- [1:255 -1:255 32 0] 
s 2.009796031 _5_ RTR  --- 0 SB 20 [0 0 0 0] ------- [5:255 -1:255 32 0] 
r 2.010510129 _3_ RTR  --- 0 SB 20 [0 ffffffff 4 800] ------- [4:255 -1:255 32 0] 