n -t * -s 0  -x 0 -y 175 -Z 0 -z 10  -v circle -c black
n -t * -s 1  -x 50 -y 200 -Z 0 -z 10  -v circle -c black
n -t * -s 2  -x 50 -y 150 -Z 0 -z 10  -v circle -c black
n -t * -s 3  -x 100 -y 250 -Z 0 -z 10  -v circle -c black
n -t * -s 4  -x 100 -y 200 -Z 0 -z 10  -v circle -c black
n -t * -s 5  -x 100 -y 150 -Z 0 -z 10  -v circle -c black
n -t * -s 6  -x 100 -y 100 -Z 0 -z 10  -v circle -c black
n -t * -s 7  -x 150 -y 250 -Z 0 -z 10  -v circle -c black
n -t * -s 8  -x 150 -y 200 -Z 0 -z 10  -v circle -c black
n -t * -s 9  -x 150 -y 150 -Z 0 -z 10  -v circle -c black
n -t * -s 10  -x 150 -y 100 -Z 0 -z 10  -v circle -c black
n -t * -s 11  -x 200 -y 250 -Z 0 -z 10  -v circle -c black
n -t * -s 12  -x 200 -y 200 -Z 0 -z 10  -v circle -c black
n -t * -s 13  -x 200 -y 150 -Z 0 -z 10  -v circle -c black
n -t * -s 14  -x 200 -y 100 -Z 0 -z 10  -v circle -c black
n -t * -s 15  -x 250 -y 200 -Z 0 -z 10  -v circle -c black
n -t * -s 16  -x 250 -y 150 -Z 0 -z 10  -v circle -c black
n -t * -s 17  -x 300 -y 170 -Z 0 -z 10  -v circle -c black
V -t * -v 1.0a5 -a 0
W -t * -x 500 -y 500
A -t * -n 1 -p 0 -o 0x7fffffff -c 30 -a 1
A -t * -h 1 -m 1073741823 -s 0
+ -t 1.000000000 -s 0 -d -1 -p SB -e 20 -c 2 -a 0 -i 0 -k RTR 
- -t 1.000000000 -s 0 -d -1 -p SB -e 20 -c 2 -a 0 -i 0 -k RTR
h -t 1.000000000 -s 0 -d -1 -p SB -e 20 -c 2 -a 0 -i 0 -k RTR
r -t 1.001304186 -s 1 -d -1 -p SB -e 20 -c 2 -a 0 -i 0 -k RTR
+ -t 1.001304186 -s 1 -d -1 -p SB -e 20 -c 2 -a 0 -i 0 -k RTR 
- -t 1.001304186 -s 1 -d -1 -p SB -e 20 -c 2 -a 0 -i 0 -k RTR
h -t 1.001304186 -s 1 -d -1 -p SB -e 20 -c 2 -a 0 -i 0 -k RTR
r -t 1.001304186 -s 2 -d -1 -p SB -e 20 -c 2 -a 0 -i 0 -k RTR
+ -t 1.001304186 -s 2 -d -1 -p SB -e 20 -c 2 -a 0 -i 0 -k RTR 
- -t 1.001304186 -s 2 -d -1 -p SB -e 20 -c 2 -a 0 -i 0 -k RTR
h -t 1.001304186 -s 2 -d -1 -p SB -e 20 -c 2 -a 0 -i 0 -k RTR
r -t 1.002188353 -s 1 -d -1 -p SB -e 20 -c 2 -a 0 -i 0 -k RTR
r -t 1.002188353 -s 5 -d -1 -p SB -e 20 -c 2 -a 0 -i 0 -k RTR
+ -t 1.002188353 -s 5 -d -1 -p SB -e 20 -c 2 -a 0 -i 0 -k RTR 
- -t 1.002188353 -s 5 -d -1 -p SB -e 20 -c 2 -a 0 -i 0 -k RTR
h -t 1.002188353 -s 5 -d -1 -p SB -e 20 -c 2 -a 0 -i 0 -k RTR
r -t 1.002188373 -s 0 -d -1 -p SB -e 20 -c 2 -a 0 -i 0 -k RTR
r -t 1.002188422 -s 4 -d -1 -p SB -e 20 -c 2 -a 0 -i 0 -k RTR
+ -t 1.002188422 -s 4 -d -1 -p SB -e 20 -c 2 -a 0 -i 0 -k RTR 
- -t 1.002188422 -s 4 -d -1 -p SB -e 20 -c 2 -a 0 -i 0 -k RTR
h -t 1.002188422 -s 4 -d -1 -p SB -e 20 -c 2 -a 0 -i 0 -k RTR
r -t 1.002188422 -s 6 -d -1 -p SB -e 20 -c 2 -a 0 -i 0 -k RTR
+ -t 1.002188422 -s 6 -d -1 -p SB -e 20 -c 2 -a 0 -i 0 -k RTR 
- -t 1.002188422 -s 6 -d -1 -p SB -e 20 -c 2 -a 0 -i 0 -k RTR
h -t 1.002188422 -s 6 -d -1 -p SB -e 20 -c 2 -a 0 -i 0 -k RTR
r -t 1.003122520 -s 2 -d -1 -p SB -e 20 -c 2 -a 0 -i 0 -k RTR
r -t 1.003122520 -s 4 -d -1 -p SB -e 20 -c 2 -a 0 -i 0 -k RTR
r -t 1.003122539 -s 0 -d -1 -p SB -e 20 -c 2 -a 0 -i 0 -k RTR
r -t 1.003122589 -s 3 -d -1 -p SB -e 20 -c 2 -a 0 -i 0 -k RTR
+ -t 1.003122589 -s 3 -d -1 -p SB -e 20 -c 2 -a 0 -i 0 -k RTR 
- -t 1.003122589 -s 3 -d -1 -p SB -e 20 -c 2 -a 0 -i 0 -k RTR
h -t 1.003122589 -s 3 -d -1 -p SB -e 20 -c 2 -a 0 -i 0 -k RTR
r -t 1.003122589 -s 5 -d -1 -p SB -e 20 -c 2 -a 0 -i 0 -k RTR
r -t 1.003956755 -s 4 -d -1 -p SB -e 20 -c 2 -a 0 -i 0 -k RTR
r -t 1.003956755 -s 2 -d -1 -p SB -e 20 -c 2 -a 0 -i 0 -k RTR
r -t 1.003956755 -s 6 -d -1 -p SB -e 20 -c 2 -a 0 -i 0 -k RTR
r -t 1.003956755 -s 9 -d -1 -p SB -e 20 -c 2 -a 0 -i 0 -k RTR
+ -t 1.003956755 -s 9 -d -1 -p SB -e 20 -c 2 -a 0 -i 0 -k RTR 
- -t 1.003956755 -s 9 -d -1 -p SB -e 20 -c 2 -a 0 -i 0 -k RTR
h -t 1.003956755 -s 9 -d -1 -p SB -e 20 -c 2 -a 0 -i 0 -k RTR
r -t 1.003956824 -s 1 -d -1 -p SB -e 20 -c 2 -a 0 -i 0 -k RTR
r -t 1.003956824 -s 8 -d -1 -p SB -e 20 -c 2 -a 0 -i 0 -k RTR
+ -t 1.003956824 -s 8 -d -1 -p SB -e 20 -c 2 -a 0 -i 0 -k RTR 
- -t 1.003956824 -s 8 -d -1 -p SB -e 20 -c 2 -a 0 -i 0 -k RTR
h -t 1.003956824 -s 8 -d -1 -p SB -e 20 -c 2 -a 0 -i 0 -k RTR
r -t 1.003956824 -s 10 -d -1 -p SB -e 20 -c 2 -a 0 -i 0 -k RTR
+ -t 1.003956824 -s 10 -d -1 -p SB -e 20 -c 2 -a 0 -i 0 -k RTR 
- -t 1.003956824 -s 10 -d -1 -p SB -e 20 -c 2 -a 0 -i 0 -k RTR
h -t 1.003956824 -s 10 -d -1 -p SB -e 20 -c 2 -a 0 -i 0 -k RTR
r -t 1.004670922 -s 5 -d -1 -p SB -e 20 -c 2 -a 0 -i 0 -k RTR
r -t 1.004670922 -s 10 -d -1 -p SB -e 20 -c 2 -a 0 -i 0 -k RTR
r -t 1.004670991 -s 2 -d -1 -p SB -e 20 -c 2 -a 0 -i 0 -k RTR
r -t 1.004670991 -s 9 -d -1 -p SB -e 20 -c 2 -a 0 -i 0 -k RTR
r -t 1.005709295 -s 7 -d -1 -p SB -e 20 -c 2 -a 0 -i 0 -k RTR
+ -t 1.005709295 -s 7 -d -1 -p SB -e 20 -c 2 -a 0 -i 0 -k RTR 
- -t 1.005709295 -s 7 -d -1 -p SB -e 20 -c 2 -a 0 -i 0 -k RTR
h -t 1.005709295 -s 7 -d -1 -p SB -e 20 -c 2 -a 0 -i 0 -k RTR
r -t 1.005709295 -s 4 -d -1 -p SB -e 20 -c 2 -a 0 -i 0 -k RTR
r -t 1.005709295 -s 9 -d -1 -p SB -e 20 -c 2 -a 0 -i 0 -k RTR
r -t 1.005709295 -s 12 -d -1 -p SB -e 20 -c 2 -a 0 -i 0 -k RTR
+ -t 1.005709295 -s 12 -d -1 -p SB -e 20 -c 2 -a 0 -i 0 -k RTR 
- -t 1.005709295 -s 12 -d -1 -p SB -e 20 -c 2 -a 0 -i 0 -k RTR
h -t 1.005709295 -s 12 -d -1 -p SB -e 20 -c 2 -a 0 -i 0 -k RTR
r -t 1.005709364 -s 5 -d -1 -p SB -e 20 -c 2 -a 0 -i 0 -k RTR
r -t 1.005709364 -s 3 -d -1 -p SB -e 20 -c 2 -a 0 -i 0 -k RTR
r -t 1.005709364 -s 11 -d -1 -p SB -e 20 -c 2 -a 0 -i 0 -k RTR
+ -t 1.005709364 -s 11 -d -1 -p SB -e 20 -c 2 -a 0 -i 0 -k RTR 
- -t 1.005709364 -s 11 -d -1 -p SB -e 20 -c 2 -a 0 -i 0 -k RTR
h -t 1.005709364 -s 11 -d -1 -p SB -e 20 -c 2 -a 0 -i 0 -k RTR
r -t 1.005709364 -s 13 -d -1 -p SB -e 20 -c 2 -a 0 -i 0 -k RTR
+ -t 1.005709364 -s 13 -d -1 -p SB -e 20 -c 2 -a 0 -i 0 -k RTR 
- -t 1.005709364 -s 13 -d -1 -p SB -e 20 -c 2 -a 0 -i 0 -k RTR
h -t 1.005709364 -s 13 -d -1 -p SB -e 20 -c 2 -a 0 -i 0 -k RTR
r -t 1.006453461 -s 3 -d -1 -p SB -e 20 -c 2 -a 0 -i 0 -k RTR
r -t 1.006453461 -s 8 -d -1 -p SB -e 20 -c 2 -a 0 -i 0 -k RTR
r -t 1.006453461 -s 11 -d -1 -p SB -e 20 -c 2 -a 0 -i 0 -k RTR
r -t 1.006453530 -s 4 -d -1 -p SB -e 20 -c 2 -a 0 -i 0 -k RTR
r -t 1.006453530 -s 12 -d -1 -p SB -e 20 -c 2 -a 0 -i 0 -k RTR
r -t 1.007207697 -s 3 -d -1 -p SB -e 20 -c 2 -a 0 -i 0 -k RTR
r -t 1.007207697 -s 1 -d -1 -p SB -e 20 -c 2 -a 0 -i 0 -k RTR
r -t 1.007207697 -s 5 -d -1 -p SB -e 20 -c 2 -a 0 -i 0 -k RTR
r -t 1.007207697 -s 8 -d -1 -p SB -e 20 -c 2 -a 0 -i 0 -k RTR
r -t 1.007207766 -s 2 -d -1 -p SB -e 20 -c 2 -a 0 -i 0 -k RTR
r -t 1.007207766 -s 7 -d -1 -p SB -e 20 -c 2 -a 0 -i 0 -k RTR
r -t 1.007207766 -s 9 -d -1 -p SB -e 20 -c 2 -a 0 -i 0 -k RTR
r -t 1.007961933 -s 8 -d -1 -p SB -e 20 -c 2 -a 0 -i 0 -k RTR
r -t 1.007961933 -s 5 -d -1 -p SB -e 20 -c 2 -a 0 -i 0 -k RTR
r -t 1.007961933 -s 10 -d -1 -p SB -e 20 -c 2 -a 0 -i 0 -k RTR
r -t 1.007961933 -s 13 -d -1 -p SB -e 20 -c 2 -a 0 -i 0 -k RTR
r -t 1.007962002 -s 6 -d -1 -p SB -e 20 -c 2 -a 0 -i 0 -k RTR
r -t 1.007962002 -s 4 -d -1 -p SB -e 20 -c 2 -a 0 -i 0 -k RTR
r -t 1.007962002 -s 12 -d -1 -p SB -e 20 -c 2 -a 0 -i 0 -k RTR
r -t 1.007962002 -s 14 -d -1 -p SB -e 20 -c 2 -a 0 -i 0 -k RTR
+ -t 1.007962002 -s 14 -d -1 -p SB -e 20 -c 2 -a 0 -i 0 -k RTR 
- -t 1.007962002 -s 14 -d -1 -p SB -e 20 -c 2 -a 0 -i 0 -k RTR
h -t 1.007962002 -s 14 -d -1 -p SB -e 20 -c 2 -a 0 -i 0 -k RTR
r -t 1.008696168 -s 11 -d -1 -p SB -e 20 -c 2 -a 0 -i 0 -k RTR
r -t 1.008696168 -s 8 -d -1 -p SB -e 20 -c 2 -a 0 -i 0 -k RTR
r -t 1.008696168 -s 13 -d -1 -p SB -e 20 -c 2 -a 0 -i 0 -k RTR
r -t 1.008696168 -s 15 -d -1 -p SB -e 20 -c 2 -a 0 -i 0 -k RTR
+ -t 1.008696168 -s 15 -d -1 -p SB -e 20 -c 2 -a 0 -i 0 -k RTR 
- -t 1.008696168 -s 15 -d -1 -p SB -e 20 -c 2 -a 0 -i 0 -k RTR
h -t 1.008696168 -s 15 -d -1 -p SB -e 20 -c 2 -a 0 -i 0 -k RTR
r -t 1.008696238 -s 9 -d -1 -p SB -e 20 -c 2 -a 0 -i 0 -k RTR
r -t 1.008696238 -s 7 -d -1 -p SB -e 20 -c 2 -a 0 -i 0 -k RTR
r -t 1.008696238 -s 16 -d -1 -p SB -e 20 -c 2 -a 0 -i 0 -k RTR
+ -t 1.008696238 -s 16 -d -1 -p SB -e 20 -c 2 -a 0 -i 0 -k RTR 
- -t 1.008696238 -s 16 -d -1 -p SB -e 20 -c 2 -a 0 -i 0 -k RTR
h -t 1.008696238 -s 16 -d -1 -p SB -e 20 -c 2 -a 0 -i 0 -k RTR
r -t 1.009390335 -s 7 -d -1 -p SB -e 20 -c 2 -a 0 -i 0 -k RTR
r -t 1.009390335 -s 12 -d -1 -p SB -e 20 -c 2 -a 0 -i 0 -k RTR
r -t 1.009390404 -s 8 -d -1 -p SB -e 20 -c 2 -a 0 -i 0 -k RTR
r -t 1.009390404 -s 15 -d -1 -p SB -e 20 -c 2 -a 0 -i 0 -k RTR
r -t 1.010444571 -s 12 -d -1 -p SB -e 20 -c 2 -a 0 -i 0 -k RTR
r -t 1.010444571 -s 16 -d -1 -p SB -e 20 -c 2 -a 0 -i 0 -k RTR
r -t 1.010444599 -s 17 -d -1 -p SB -e 20 -c 2 -a 0 -i 0 -k RTR
+ -t 1.010444599 -s 17 -d -1 -p SB -e 20 -c 2 -a 0 -i 0 -k RTR 
- -t 1.010444599 -s 17 -d -1 -p SB -e 20 -c 2 -a 0 -i 0 -k RTR
h -t 1.010444599 -s 17 -d -1 -p SB -e 20 -c 2 -a 0 -i 0 -k RTR
r -t 1.010444640 -s 13 -d -1 -p SB -e 20 -c 2 -a 0 -i 0 -k RTR
r -t 1.010444640 -s 11 -d -1 -p SB -e 20 -c 2 -a 0 -i 0 -k RTR
r -t 1.011348778 -s 16 -d -1 -p SB -e 20 -c 2 -a 0 -i 0 -k RTR
r -t 1.011348793 -s 15 -d -1 -p SB -e 20 -c 2 -a 0 -i 0 -k RTR
r -t 1.012362945 -s 15 -d -1 -p SB -e 20 -c 2 -a 0 -i 0 -k RTR
r -t 1.012362945 -s 13 -d -1 -p SB -e 20 -c 2 -a 0 -i 0 -k RTR
r -t 1.012362958 -s 17 -d -1 -p SB -e 20 -c 2 -a 0 -i 0 -k RTR
r -t 1.012363014 -s 14 -d -1 -p SB -e 20 -c 2 -a 0 -i 0 -k RTR
r -t 1.012363014 -s 12 -d -1 -p SB -e 20 -c 2 -a 0 -i 0 -k RTR
r -t 1.013137111 -s 12 -d -1 -p SB -e 20 -c 2 -a 0 -i 0 -k RTR
r -t 1.013137111 -s 9 -d -1 -p SB -e 20 -c 2 -a 0 -i 0 -k RTR
r -t 1.013137111 -s 14 -d -1 -p SB -e 20 -c 2 -a 0 -i 0 -k RTR
r -t 1.013137111 -s 16 -d -1 -p SB -e 20 -c 2 -a 0 -i 0 -k RTR
r -t 1.013137180 -s 10 -d -1 -p SB -e 20 -c 2 -a 0 -i 0 -k RTR
r -t 1.013137180 -s 8 -d -1 -p SB -e 20 -c 2 -a 0 -i 0 -k RTR
r -t 1.013137180 -s 15 -d -1 -p SB -e 20 -c 2 -a 0 -i 0 -k RTR
r -t 1.013971347 -s 9 -d -1 -p SB -e 20 -c 2 -a 0 -i 0 -k RTR
r -t 1.013971347 -s 6 -d -1 -p SB -e 20 -c 2 -a 0 -i 0 -k RTR
r -t 1.013971347 -s 14 -d -1 -p SB -e 20 -c 2 -a 0 -i 0 -k RTR
r -t 1.013971416 -s 5 -d -1 -p SB -e 20 -c 2 -a 0 -i 0 -k RTR
r -t 1.013971416 -s 13 -d -1 -p SB -e 20 -c 2 -a 0 -i 0 -k RTR
r -t 1.014925514 -s 13 -d -1 -p SB -e 20 -c 2 -a 0 -i 0 -k RTR
r -t 1.014925514 -s 10 -d -1 -p SB -e 20 -c 2 -a 0 -i 0 -k RTR
r -t 1.014925583 -s 9 -d -1 -p SB -e 20 -c 2 -a 0 -i 0 -k RTR
r -t 1.014925583 -s 16 -d -1 -p SB -e 20 -c 2 -a 0 -i 0 -k RTR
r -t 1.016084115 -s 4 -d -1 -p SB -e 20 -c 2 -a 0 -i 0 -k RTR
r -t 1.016084115 -s 7 -d -1 -p SB -e 20 -c 2 -a 0 -i 0 -k RTR
r -t 1.016084184 -s 1 -d -1 -p SB -e 20 -c 2 -a 0 -i 0 -k RTR
r -t 1.016084184 -s 8 -d -1 -p SB -e 20 -c 2 -a 0 -i 0 -k RTR
+ -t 1.250000000 -s 0 -d -1 -p SB -e 20 -c 2 -a 0 -i 0 -k RTR 
- -t 1.250000000 -s 0 -d -1 -p SB -e 20 -c 2 -a 0 -i 0 -k RTR
h -t 1.250000000 -s 0 -d -1 -p SB -e 20 -c 2 -a 0 -i 0 -k RTR
r -t 1.251124186 -s 1 -d -1 -p SB -e 20 -c 2 -a 0 -i 0 -k RTR
r -t 1.251124186 -s 2 -d -1 -p SB -e 20 -c 2 -a 0 -i 0 -k RTR
+ -t 1.500000000 -s 0 -d -1 -p SB -e 20 -c 2 -a 0 -i 0 -k RTR 
- -t 1.500000000 -s 0 -d -1 -p SB -e 20 -c 2 -a 0 -i 0 -k RTR
h -t 1.500000000 -s 0 -d -1 -p SB -e 20 -c 2 -a 0 -i 0 -k RTR
r -t 1.500924186 -s 1 -d -1 -p SB -e 20 -c 2 -a 0 -i 0 -k RTR
+ -t 1.500924186 -s 1 -d -1 -p SB -e 20 -c 2 -a 0 -i 0 -k RTR 
- -t 1.500924186 -s 1 -d -1 -p SB -e 20 -c 2 -a 0 -i 0 -k RTR
h -t 1.500924186 -s 1 -d -1 -p SB -e 20 -c 2 -a 0 -i 0 -k RTR
r -t 1.500924186 -s 2 -d -1 -p SB -e 20 -c 2 -a 0 -i 0 -k RTR
+ -t 1.500924186 -s 2 -d -1 -p SB -e 20 -c 2 -a 0 -i 0 -k RTR 
- -t 1.500924186 -s 2 -d -1 -p SB -e 20 -c 2 -a 0 -i 0 -k RTR
h -t 1.500924186 -s 2 -d -1 -p SB -e 20 -c 2 -a 0 -i 0 -k RTR
r -t 1.501728353 -s 1 -d -1 -p SB -e 20 -c 2 -a 0 -i 0 -k RTR
+ -t 1.501728353 -s 1 -d -1 -p SB -e 20 -c 2 -a 0 -i 0 -k RTR 
- -t 1.501728353 -s 1 -d -1 -p SB -e 20 -c 2 -a 0 -i 0 -k RTR
h -t 1.501728353 -s 1 -d -1 -p SB -e 20 -c 2 -a 0 -i 0 -k RTR
r -t 1.501728353 -s 5 -d -1 -p SB -e 20 -c 2 -a 0 -i 0 -k RTR
r -t 1.501728373 -s 0 -d -1 -p SB -e 20 -c 2 -a 0 -i 0 -k RTR
r -t 1.501728422 -s 4 -d -1 -p SB -e 20 -c 2 -a 0 -i 0 -k RTR
r -t 1.501728422 -s 6 -d -1 -p SB -e 20 -c 2 -a 0 -i 0 -k RTR
r -t 1.502562520 -s 2 -d -1 -p SB -e 20 -c 2 -a 0 -i 0 -k RTR
+ -t 1.502562520 -s 2 -d -1 -p SB -e 20 -c 2 -a 0 -i 0 -k RTR 
- -t 1.502562520 -s 2 -d -1 -p SB -e 20 -c 2 -a 0 -i 0 -k RTR
h -t 1.502562520 -s 2 -d -1 -p SB -e 20 -c 2 -a 0 -i 0 -k RTR
r -t 1.502562520 -s 4 -d -1 -p SB -e 20 -c 2 -a 0 -i 0 -k RTR
+ -t 1.502562520 -s 4 -d -1 -p SB -e 20 -c 2 -a 0 -i 0 -k RTR 
- -t 1.502562520 -s 4 -d -1 -p SB -e 20 -c 2 -a 0 -i 0 -k RTR
h -t 1.502562520 -s 4 -d -1 -p SB -e 20 -c 2 -a 0 -i 0 -k RTR
r -t 1.502562539 -s 0 -d -1 -p SB -e 20 -c 2 -a 0 -i 0 -k RTR
r -t 1.502562589 -s 3 -d -1 -p SB -e 20 -c 2 -a 0 -i 0 -k RTR
r -t 1.502562589 -s 5 -d -1 -p SB -e 20 -c 2 -a 0 -i 0 -k RTR
+ -t 1.502562589 -s 5 -d -1 -p SB -e 20 -c 2 -a 0 -i 0 -k RTR 
- -t 1.502562589 -s 5 -d -1 -p SB -e 20 -c 2 -a 0 -i 0 -k RTR
h -t 1.502562589 -s 5 -d -1 -p SB -e 20 -c 2 -a 0 -i 0 -k RTR
r -t 1.503416520 -s 2 -d -1 -p SB -e 20 -c 2 -a 0 -i 0 -k RTR
+ -t 1.503416520 -s 2 -d -1 -p SB -e 20 -c 2 -a 0 -i 0 -k RTR 
- -t 1.503416520 -s 2 -d -1 -p SB -e 20 -c 2 -a 0 -i 0 -k RTR
h -t 1.503416520 -s 2 -d -1 -p SB -e 20 -c 2 -a 0 -i 0 -k RTR
r -t 1.503416520 -s 4 -d -1 -p SB -e 20 -c 2 -a 0 -i 0 -k RTR
+ -t 1.503416520 -s 4 -d -1 -p SB -e 20 -c 2 -a 0 -i 0 -k RTR 
- -t 1.503416520 -s 4 -d -1 -p SB -e 20 -c 2 -a 0 -i 0 -k RTR
h -t 1.503416520 -s 4 -d -1 -p SB -e 20 -c 2 -a 0 -i 0 -k RTR
r -t 1.503416539 -s 0 -d -1 -p SB -e 20 -c 2 -a 0 -i 0 -k RTR
r -t 1.503416589 -s 3 -d -1 -p SB -e 20 -c 2 -a 0 -i 0 -k RTR
+ -t 1.503416589 -s 3 -d -1 -p SB -e 20 -c 2 -a 0 -i 0 -k RTR 
- -t 1.503416589 -s 3 -d -1 -p SB -e 20 -c 2 -a 0 -i 0 -k RTR
h -t 1.503416589 -s 3 -d -1 -p SB -e 20 -c 2 -a 0 -i 0 -k RTR
r -t 1.503416589 -s 5 -d -1 -p SB -e 20 -c 2 -a 0 -i 0 -k RTR
+ -t 1.503416589 -s 5 -d -1 -p SB -e 20 -c 2 -a 0 -i 0 -k RTR 
- -t 1.503416589 -s 5 -d -1 -p SB -e 20 -c 2 -a 0 -i 0 -k RTR
h -t 1.503416589 -s 5 -d -1 -p SB -e 20 -c 2 -a 0 -i 0 -k RTR
r -t 1.504170686 -s 1 -d -1 -p SB -e 20 -c 2 -a 0 -i 0 -k RTR
+ -t 1.504170686 -s 1 -d -1 -p SB -e 20 -c 2 -a 0 -i 0 -k RTR 
- -t 1.504170686 -s 1 -d -1 -p SB -e 20 -c 2 -a 0 -i 0 -k RTR
h -t 1.504170686 -s 1 -d -1 -p SB -e 20 -c 2 -a 0 -i 0 -k RTR
r -t 1.504170686 -s 5 -d -1 -p SB -e 20 -c 2 -a 0 -i 0 -k RTR
+ -t 1.504170686 -s 5 -d -1 -p SB -e 20 -c 2 -a 0 -i 0 -k RTR 
- -t 1.504170686 -s 5 -d -1 -p SB -e 20 -c 2 -a 0 -i 0 -k RTR
h -t 1.504170686 -s 5 -d -1 -p SB -e 20 -c 2 -a 0 -i 0 -k RTR
r -t 1.504170706 -s 0 -d -1 -p SB -e 20 -c 2 -a 0 -i 0 -k RTR
r -t 1.504170755 -s 4 -d -1 -p SB -e 20 -c 2 -a 0 -i 0 -k RTR
+ -t 1.504170755 -s 4 -d -1 -p SB -e 20 -c 2 -a 0 -i 0 -k RTR 
- -t 1.504170755 -s 4 -d -1 -p SB -e 20 -c 2 -a 0 -i 0 -k RTR
h -t 1.504170755 -s 4 -d -1 -p SB -e 20 -c 2 -a 0 -i 0 -k RTR
r -t 1.504170755 -s 6 -d -1 -p SB -e 20 -c 2 -a 0 -i 0 -k RTR
+ -t 1.504170755 -s 6 -d -1 -p SB -e 20 -c 2 -a 0 -i 0 -k RTR 
- -t 1.504170755 -s 6 -d -1 -p SB -e 20 -c 2 -a 0 -i 0 -k RTR
h -t 1.504170755 -s 6 -d -1 -p SB -e 20 -c 2 -a 0 -i 0 -k RTR
r -t 1.504844686 -s 1 -d -1 -p SB -e 20 -c 2 -a 0 -i 0 -k RTR
r -t 1.504844686 -s 5 -d -1 -p SB -e 20 -c 2 -a 0 -i 0 -k RTR
r -t 1.504844706 -s 0 -d -1 -p SB -e 20 -c 2 -a 0 -i 0 -k RTR
r -t 1.504844755 -s 4 -d -1 -p SB -e 20 -c 2 -a 0 -i 0 -k RTR
r -t 1.504844755 -s 6 -d -1 -p SB -e 20 -c 2 -a 0 -i 0 -k RTR
r -t 1.505538922 -s 5 -d -1 -p SB -e 20 -c 2 -a 0 -i 0 -k RTR
r -t 1.505538922 -s 10 -d -1 -p SB -e 20 -c 2 -a 0 -i 0 -k RTR
r -t 1.505538991 -s 2 -d -1 -p SB -e 20 -c 2 -a 0 -i 0 -k RTR
r -t 1.505538991 -s 9 -d -1 -p SB -e 20 -c 2 -a 0 -i 0 -k RTR
r -t 1.506393089 -s 4 -d -1 -p SB -e 20 -c 2 -a 0 -i 0 -k RTR
+ -t 1.506393089 -s 4 -d -1 -p SB -e 20 -c 2 -a 0 -i 0 -k RTR 
- -t 1.506393089 -s 4 -d -1 -p SB -e 20 -c 2 -a 0 -i 0 -k RTR
h -t 1.506393089 -s 4 -d -1 -p SB -e 20 -c 2 -a 0 -i 0 -k RTR
r -t 1.506393089 -s 2 -d -1 -p SB -e 20 -c 2 -a 0 -i 0 -k RTR
+ -t 1.506393089 -s 2 -d -1 -p SB -e 20 -c 2 -a 0 -i 0 -k RTR 
- -t 1.506393089 -s 2 -d -1 -p SB -e 20 -c 2 -a 0 -i 0 -k RTR
h -t 1.506393089 -s 2 -d -1 -p SB -e 20 -c 2 -a 0 -i 0 -k RTR
r -t 1.506393089 -s 6 -d -1 -p SB -e 20 -c 2 -a 0 -i 0 -k RTR
+ -t 1.506393089 -s 6 -d -1 -p SB -e 20 -c 2 -a 0 -i 0 -k RTR 
- -t 1.506393089 -s 6 -d -1 -p SB -e 20 -c 2 -a 0 -i 0 -k RTR
h -t 1.506393089 -s 6 -d -1 -p SB -e 20 -c 2 -a 0 -i 0 -k RTR
r -t 1.506393089 -s 9 -d -1 -p SB -e 20 -c 2 -a 0 -i 0 -k RTR
+ -t 1.506393089 -s 9 -d -1 -p SB -e 20 -c 2 -a 0 -i 0 -k RTR 
- -t 1.506393089 -s 9 -d -1 -p SB -e 20 -c 2 -a 0 -i 0 -k RTR
h -t 1.506393089 -s 9 -d -1 -p SB -e 20 -c 2 -a 0 -i 0 -k RTR
r -t 1.506393158 -s 1 -d -1 -p SB -e 20 -c 2 -a 0 -i 0 -k RTR
+ -t 1.506393158 -s 1 -d -1 -p SB -e 20 -c 2 -a 0 -i 0 -k RTR 
- -t 1.506393158 -s 1 -d -1 -p SB -e 20 -c 2 -a 0 -i 0 -k RTR
h -t 1.506393158 -s 1 -d -1 -p SB -e 20 -c 2 -a 0 -i 0 -k RTR
r -t 1.506393158 -s 8 -d -1 -p SB -e 20 -c 2 -a 0 -i 0 -k RTR
r -t 1.506393158 -s 10 -d -1 -p SB -e 20 -c 2 -a 0 -i 0 -k RTR
+ -t 1.506393158 -s 10 -d -1 -p SB -e 20 -c 2 -a 0 -i 0 -k RTR 
- -t 1.506393158 -s 10 -d -1 -p SB -e 20 -c 2 -a 0 -i 0 -k RTR
h -t 1.506393158 -s 10 -d -1 -p SB -e 20 -c 2 -a 0 -i 0 -k RTR
r -t 1.507127255 -s 5 -d -1 -p SB -e 20 -c 2 -a 0 -i 0 -k RTR
r -t 1.507127255 -s 10 -d -1 -p SB -e 20 -c 2 -a 0 -i 0 -k RTR
r -t 1.507127324 -s 2 -d -1 -p SB -e 20 -c 2 -a 0 -i 0 -k RTR
r -t 1.507127324 -s 9 -d -1 -p SB -e 20 -c 2 -a 0 -i 0 -k RTR
r -t 1.508041491 -s 1 -d -1 -p SB -e 20 -c 2 -a 0 -i 0 -k RTR
r -t 1.508041491 -s 5 -d -1 -p SB -e 20 -c 2 -a 0 -i 0 -k RTR
r -t 1.508041511 -s 0 -d -1 -p SB -e 20 -c 2 -a 0 -i 0 -k RTR
r -t 1.508041560 -s 4 -d -1 -p SB -e 20 -c 2 -a 0 -i 0 -k RTR
r -t 1.508041560 -s 6 -d -1 -p SB -e 20 -c 2 -a 0 -i 0 -k RTR
r -t 1.508855727 -s 3 -d -1 -p SB -e 20 -c 2 -a 0 -i 0 -k RTR
+ -t 1.508855727 -s 3 -d -1 -p SB -e 20 -c 2 -a 0 -i 0 -k RTR 
- -t 1.508855727 -s 3 -d -1 -p SB -e 20 -c 2 -a 0 -i 0 -k RTR
h -t 1.508855727 -s 3 -d -1 -p SB -e 20 -c 2 -a 0 -i 0 -k RTR
r -t 1.508855727 -s 1 -d -1 -p SB -e 20 -c 2 -a 0 -i 0 -k RTR
+ -t 1.508855727 -s 1 -d -1 -p SB -e 20 -c 2 -a 0 -i 0 -k RTR 
- -t 1.508855727 -s 1 -d -1 -p SB -e 20 -c 2 -a 0 -i 0 -k RTR
h -t 1.508855727 -s 1 -d -1 -p SB -e 20 -c 2 -a 0 -i 0 -k RTR
r -t 1.508855727 -s 5 -d -1 -p SB -e 20 -c 2 -a 0 -i 0 -k RTR
+ -t 1.508855727 -s 5 -d -1 -p SB -e 20 -c 2 -a 0 -i 0 -k RTR 
- -t 1.508855727 -s 5 -d -1 -p SB -e 20 -c 2 -a 0 -i 0 -k RTR
h -t 1.508855727 -s 5 -d -1 -p SB -e 20 -c 2 -a 0 -i 0 -k RTR
r -t 1.508855727 -s 8 -d -1 -p SB -e 20 -c 2 -a 0 -i 0 -k RTR
+ -t 1.508855727 -s 8 -d -1 -p SB -e 20 -c 2 -a 0 -i 0 -k RTR 
- -t 1.508855727 -s 8 -d -1 -p SB -e 20 -c 2 -a 0 -i 0 -k RTR
h -t 1.508855727 -s 8 -d -1 -p SB -e 20 -c 2 -a 0 -i 0 -k RTR
r -t 1.508855796 -s 2 -d -1 -p SB -e 20 -c 2 -a 0 -i 0 -k RTR
+ -t 1.508855796 -s 2 -d -1 -p SB -e 20 -c 2 -a 0 -i 0 -k RTR 
- -t 1.508855796 -s 2 -d -1 -p SB -e 20 -c 2 -a 0 -i 0 -k RTR
h -t 1.508855796 -s 2 -d -1 -p SB -e 20 -c 2 -a 0 -i 0 -k RTR
r -t 1.508855796 -s 7 -d -1 -p SB -e 20 -c 2 -a 0 -i 0 -k RTR
r -t 1.508855796 -s 9 -d -1 -p SB -e 20 -c 2 -a 0 -i 0 -k RTR
+ -t 1.508855796 -s 9 -d -1 -p SB -e 20 -c 2 -a 0 -i 0 -k RTR 
- -t 1.508855796 -s 9 -d -1 -p SB -e 20 -c 2 -a 0 -i 0 -k RTR
h -t 1.508855796 -s 9 -d -1 -p SB -e 20 -c 2 -a 0 -i 0 -k RTR
r -t 1.509549962 -s 1 -d -1 -p SB -e 20 -c 2 -a 0 -i 0 -k RTR
r -t 1.509549962 -s 5 -d -1 -p SB -e 20 -c 2 -a 0 -i 0 -k RTR
r -t 1.509549982 -s 0 -d -1 -p SB -e 20 -c 2 -a 0 -i 0 -k RTR
r -t 1.509550032 -s 4 -d -1 -p SB -e 20 -c 2 -a 0 -i 0 -k RTR
r -t 1.509550032 -s 6 -d -1 -p SB -e 20 -c 2 -a 0 -i 0 -k RTR
r -t 1.510244129 -s 2 -d -1 -p SB -e 20 -c 2 -a 0 -i 0 -k RTR
r -t 1.510244129 -s 4 -d -1 -p SB -e 20 -c 2 -a 0 -i 0 -k RTR
r -t 1.510244149 -s 0 -d -1 -p SB -e 20 -c 2 -a 0 -i 0 -k RTR
r -t 1.510244198 -s 3 -d -1 -p SB -e 20 -c 2 -a 0 -i 0 -k RTR
r -t 1.510244198 -s 5 -d -1 -p SB -e 20 -c 2 -a 0 -i 0 -k RTR
r -t 1.510998365 -s 4 -d -1 -p SB -e 20 -c 2 -a 0 -i 0 -k RTR
r -t 1.510998365 -s 7 -d -1 -p SB -e 20 -c 2 -a 0 -i 0 -k RTR
r -t 1.510998434 -s 1 -d -1 -p SB -e 20 -c 2 -a 0 -i 0 -k RTR
r -t 1.510998434 -s 8 -d -1 -p SB -e 20 -c 2 -a 0 -i 0 -k RTR
r -t 1.511752601 -s 7 -d -1 -p SB -e 20 -c 2 -a 0 -i 0 -k RTR
r -t 1.511752601 -s 4 -d -1 -p SB -e 20 -c 2 -a 0 -i 0 -k RTR
r -t 1.511752601 -s 9 -d -1 -p SB -e 20 -c 2 -a 0 -i 0 -k RTR
r -t 1.511752601 -s 12 -d -1 -p SB -e 20 -c 2 -a 0 -i 0 -k RTR
r -t 1.511752670 -s 5 -d -1 -p SB -e 20 -c 2 -a 0 -i 0 -k RTR
r -t 1.511752670 -s 3 -d -1 -p SB -e 20 -c 2 -a 0 -i 0 -k RTR
r -t 1.511752670 -s 11 -d -1 -p SB -e 20 -c 2 -a 0 -i 0 -k RTR
r -t 1.511752670 -s 13 -d -1 -p SB -e 20 -c 2 -a 0 -i 0 -k RTR
r -t 1.512446836 -s 6 -d -1 -p SB -e 20 -c 2 -a 0 -i 0 -k RTR
r -t 1.512446905 -s 10 -d -1 -p SB -e 20 -c 2 -a 0 -i 0 -k RTR
r -t 1.513545170 -s 4 -d -1 -p SB -e 20 -c 2 -a 0 -i 0 -k RTR
r -t 1.513545170 -s 2 -d -1 -p SB -e 20 -c 2 -a 0 -i 0 -k RTR
r -t 1.513545170 -s 6 -d -1 -p SB -e 20 -c 2 -a 0 -i 0 -k RTR
r -t 1.513545170 -s 9 -d -1 -p SB -e 20 -c 2 -a 0 -i 0 -k RTR
r -t 1.513545239 -s 1 -d -1 -p SB -e 20 -c 2 -a 0 -i 0 -k RTR
r -t 1.513545239 -s 8 -d -1 -p SB -e 20 -c 2 -a 0 -i 0 -k RTR
r -t 1.513545239 -s 10 -d -1 -p SB -e 20 -c 2 -a 0 -i 0 -k RTR
r -t 1.514239336 -s 8 -d -1 -p SB -e 20 -c 2 -a 0 -i 0 -k RTR
r -t 1.514239336 -s 5 -d -1 -p SB -e 20 -c 2 -a 0 -i 0 -k RTR
r -t 1.514239336 -s 10 -d -1 -p SB -e 20 -c 2 -a 0 -i 0 -k RTR
r -t 1.514239336 -s 13 -d -1 -p SB -e 20 -c 2 -a 0 -i 0 -k RTR
r -t 1.514239405 -s 6 -d -1 -p SB -e 20 -c 2 -a 0 -i 0 -k RTR
r -t 1.514239405 -s 4 -d -1 -p SB -e 20 -c 2 -a 0 -i 0 -k RTR
r -t 1.514239405 -s 12 -d -1 -p SB -e 20 -c 2 -a 0 -i 0 -k RTR
r -t 1.514239405 -s 14 -d -1 -p SB -e 20 -c 2 -a 0 -i 0 -k RTR
r -t 1.514933503 -s 4 -d -1 -p SB -e 20 -c 2 -a 0 -i 0 -k RTR
r -t 1.514933503 -s 2 -d -1 -p SB -e 20 -c 2 -a 0 -i 0 -k RTR
r -t 1.514933503 -s 6 -d -1 -p SB -e 20 -c 2 -a 0 -i 0 -k RTR
r -t 1.514933503 -s 9 -d -1 -p SB -e 20 -c 2 -a 0 -i 0 -k RTR
r -t 1.514933572 -s 1 -d -1 -p SB -e 20 -c 2 -a 0 -i 0 -k RTR
r -t 1.514933572 -s 8 -d -1 -p SB -e 20 -c 2 -a 0 -i 0 -k RTR
r -t 1.514933572 -s 10 -d -1 -p SB -e 20 -c 2 -a 0 -i 0 -k RTR
r -t 1.515727670 -s 3 -d -1 -p SB -e 20 -c 2 -a 0 -i 0 -k RTR
r -t 1.515727670 -s 1 -d -1 -p SB -e 20 -c 2 -a 0 -i 0 -k RTR
r -t 1.515727739 -s 7 -d -1 -p SB -e 20 -c 2 -a 0 -i 0 -k RTR
r -t 1.515727739 -s 14 -d -1 -p SB -e 20 -c 2 -a 0 -i 0 -k RTR
r -t 1.516786210 -s 2 -d -1 -p SB -e 20 -c 2 -a 0 -i 0 -k RTR
r -t 1.516786210 -s 4 -d -1 -p SB -e 20 -c 2 -a 0 -i 0 -k RTR
r -t 1.516786230 -s 0 -d -1 -p SB -e 20 -c 2 -a 0 -i 0 -k RTR
r -t 1.516786279 -s 3 -d -1 -p SB -e 20 -c 2 -a 0 -i 0 -k RTR
r -t 1.516786279 -s 5 -d -1 -p SB -e 20 -c 2 -a 0 -i 0 -k RTR
r -t 1.517920377 -s 3 -d -1 -p SB -e 20 -c 2 -a 0 -i 0 -k RTR
r -t 1.517920377 -s 1 -d -1 -p SB -e 20 -c 2 -a 0 -i 0 -k RTR
r -t 1.517920377 -s 5 -d -1 -p SB -e 20 -c 2 -a 0 -i 0 -k RTR
r -t 1.517920377 -s 8 -d -1 -p SB -e 20 -c 2 -a 0 -i 0 -k RTR
r -t 1.517920446 -s 2 -d -1 -p SB -e 20 -c 2 -a 0 -i 0 -k RTR
r -t 1.517920446 -s 7 -d -1 -p SB -e 20 -c 2 -a 0 -i 0 -k RTR
r -t 1.517920446 -s 9 -d -1 -p SB -e 20 -c 2 -a 0 -i 0 -k RTR
r -t 1.518694543 -s 2 -d -1 -p SB -e 20 -c 2 -a 0 -i 0 -k RTR
r -t 1.518694543 -s 4 -d -1 -p SB -e 20 -c 2 -a 0 -i 0 -k RTR
r -t 1.518694563 -s 0 -d -1 -p SB -e 20 -c 2 -a 0 -i 0 -k RTR
r -t 1.518694612 -s 3 -d -1 -p SB -e 20 -c 2 -a 0 -i 0 -k RTR
r -t 1.518694612 -s 5 -d -1 -p SB -e 20 -c 2 -a 0 -i 0 -k RTR
r -t 1.519428710 -s 3 -d -1 -p SB -e 20 -c 2 -a 0 -i 0 -k RTR
r -t 1.519428710 -s 1 -d -1 -p SB -e 20 -c 2 -a 0 -i 0 -k RTR
r -t 1.519428710 -s 5 -d -1 -p SB -e 20 -c 2 -a 0 -i 0 -k RTR
r -t 1.519428710 -s 8 -d -1 -p SB -e 20 -c 2 -a 0 -i 0 -k RTR
r -t 1.519428779 -s 2 -d -1 -p SB -e 20 -c 2 -a 0 -i 0 -k RTR
r -t 1.519428779 -s 7 -d -1 -p SB -e 20 -c 2 -a 0 -i 0 -k RTR
r -t 1.519428779 -s 9 -d -1 -p SB -e 20 -c 2 -a 0 -i 0 -k RTR
r -t 1.520262946 -s 8 -d -1 -p SB -e 20 -c 2 -a 0 -i 0 -k RTR
r -t 1.520262946 -s 5 -d -1 -p SB -e 20 -c 2 -a 0 -i 0 -k RTR
r -t 1.520262946 -s 10 -d -1 -p SB -e 20 -c 2 -a 0 -i 0 -k RTR
r -t 1.520262946 -s 13 -d -1 -p SB -e 20 -c 2 -a 0 -i 0 -k RTR
r -t 1.520263015 -s 6 -d -1 -p SB -e 20 -c 2 -a 0 -i 0 -k RTR
r -t 1.520263015 -s 4 -d -1 -p SB -e 20 -c 2 -a 0 -i 0 -k RTR
r -t 1.520263015 -s 12 -d -1 -p SB -e 20 -c 2 -a 0 -i 0 -k RTR
r -t 1.520263015 -s 14 -d -1 -p SB -e 20 -c 2 -a 0 -i 0 -k RTR
+ -t 1.750000000 -s 0 -d -1 -p SB -e 20 -c 2 -a 0 -i 0 -k RTR 
- -t 1.750000000 -s 0 -d -1 -p SB -e 20 -c 2 -a 0 -i 0 -k RTR
h -t 1.750000000 -s 0 -d -1 -p SB -e 20 -c 2 -a 0 -i 0 -k RTR
r -t 1.751224186 -s 1 -d -1 -p SB -e 20 -c 2 -a 0 -i 0 -k RTR
r -t 1.751224186 -s 2 -d -1 -p SB -e 20 -c 2 -a 0 -i 0 -k RTR
n -t 2.000000 -s 7 -x 150.000000 -y 250.000000 -U 0.000000 -V -16.600000 -T 12.048193
n -t 2.000000 -s 8 -x 150.000000 -y 200.000000 -U 0.000000 -V 16.600000 -T 6.024096
n -t 2.000000 -s 9 -x 150.000000 -y 150.000000 -U 0.000000 -V -16.600000 -T 6.024096
n -t 2.000000 -s 10 -x 150.000000 -y 100.000000 -U 0.000000 -V 16.600000 -T 12.048193
n -t 2.000000 -s 11 -x 200.000000 -y 250.000000 -U 0.000000 -V 16.600000 -T 3.012048
n -t 2.000000 -s 12 -x 200.000000 -y 200.000000 -U 0.000000 -V -16.600000 -T 9.036145
n -t 2.000000 -s 13 -x 200.000000 -y 150.000000 -U 0.000000 -V 16.600000 -T 9.036145
n -t 2.000000 -s 14 -x 200.000000 -y 100.000000 -U 0.000000 -V -16.600000 -T 3.012048
+ -t 2.000000000 -s 0 -d -1 -p SB -e 20 -c 2 -a 0 -i 0 -k RTR 
- -t 2.000000000 -s 0 -d -1 -p SB -e 20 -c 2 -a 0 -i 0 -k RTR
h -t 2.000000000 -s 0 -d -1 -p SB -e 20 -c 2 -a 0 -i 0 -k RTR
r -t 2.001324186 -s 1 -d -1 -p SB -e 20 -c 2 -a 0 -i 0 -k RTR
+ -t 2.001324186 -s 1 -d -1 -p SB -e 20 -c 2 -a 0 -i 0 -k RTR 
- -t 2.001324186 -s 1 -d -1 -p SB -e 20 -c 2 -a 0 -i 0 -k RTR
h -t 2.001324186 -s 1 -d -1 -p SB -e 20 -c 2 -a 0 -i 0 -k RTR
r -t 2.001324186 -s 2 -d -1 -p SB -e 20 -c 2 -a 0 -i 0 -k RTR
+ -t 2.001324186 -s 2 -d -1 -p SB -e 20 -c 2 -a 0 -i 0 -k RTR 
- -t 2.001324186 -s 2 -d -1 -p SB -e 20 -c 2 -a 0 -i 0 -k RTR
h -t 2.001324186 -s 2 -d -1 -p SB -e 20 -c 2 -a 0 -i 0 -k RTR
r -t 2.002548353 -s 2 -d -1 -p SB -e 20 -c 2 -a 0 -i 0 -k RTR
+ -t 2.002548353 -s 2 -d -1 -p SB -e 20 -c 2 -a 0 -i 0 -k RTR 
- -t 2.002548353 -s 2 -d -1 -p SB -e 20 -c 2 -a 0 -i 0 -k RTR
h -t 2.002548353 -s 2 -d -1 -p SB -e 20 -c 2 -a 0 -i 0 -k RTR
r -t 2.002548353 -s 4 -d -1 -p SB -e 20 -c 2 -a 0 -i 0 -k RTR
r -t 2.002548373 -s 0 -d -1 -p SB -e 20 -c 2 -a 0 -i 0 -k RTR
r -t 2.002548422 -s 3 -d -1 -p SB -e 20 -c 2 -a 0 -i 0 -k RTR
r -t 2.002548422 -s 5 -d -1 -p SB -e 20 -c 2 -a 0 -i 0 -k RTR
r -t 2.003242520 -s 1 -d -1 -p SB -e 20 -c 2 -a 0 -i 0 -k RTR
+ -t 2.003242520 -s 1 -d -1 -p SB -e 20 -c 2 -a 0 -i 0 -k RTR 
- -t 2.003242520 -s 1 -d -1 -p SB -e 20 -c 2 -a 0 -i 0 -k RTR
h -t 2.003242520 -s 1 -d -1 -p SB -e 20 -c 2 -a 0 -i 0 -k RTR
r -t 2.003242520 -s 5 -d -1 -p SB -e 20 -c 2 -a 0 -i 0 -k RTR
+ -t 2.003242520 -s 5 -d -1 -p SB -e 20 -c 2 -a 0 -i 0 -k RTR 
- -t 2.003242520 -s 5 -d -1 -p SB -e 20 -c 2 -a 0 -i 0 -k RTR
h -t 2.003242520 -s 5 -d -1 -p SB -e 20 -c 2 -a 0 -i 0 -k RTR
r -t 2.003242539 -s 0 -d -1 -p SB -e 20 -c 2 -a 0 -i 0 -k RTR
r -t 2.003242589 -s 4 -d -1 -p SB -e 20 -c 2 -a 0 -i 0 -k RTR
+ -t 2.003242589 -s 4 -d -1 -p SB -e 20 -c 2 -a 0 -i 0 -k RTR 
- -t 2.003242589 -s 4 -d -1 -p SB -e 20 -c 2 -a 0 -i 0 -k RTR
h -t 2.003242589 -s 4 -d -1 -p SB -e 20 -c 2 -a 0 -i 0 -k RTR
r -t 2.003242589 -s 6 -d -1 -p SB -e 20 -c 2 -a 0 -i 0 -k RTR
r -t 2.003936520 -s 1 -d -1 -p SB -e 20 -c 2 -a 0 -i 0 -k RTR
+ -t 2.003936520 -s 1 -d -1 -p SB -e 20 -c 2 -a 0 -i 0 -k RTR 
- -t 2.003936520 -s 1 -d -1 -p SB -e 20 -c 2 -a 0 -i 0 -k RTR
h -t 2.003936520 -s 1 -d -1 -p SB -e 20 -c 2 -a 0 -i 0 -k RTR
r -t 2.003936520 -s 5 -d -1 -p SB -e 20 -c 2 -a 0 -i 0 -k RTR
+ -t 2.003936520 -s 5 -d -1 -p SB -e 20 -c 2 -a 0 -i 0 -k RTR 
- -t 2.003936520 -s 5 -d -1 -p SB -e 20 -c 2 -a 0 -i 0 -k RTR
h -t 2.003936520 -s 5 -d -1 -p SB -e 20 -c 2 -a 0 -i 0 -k RTR
r -t 2.003936539 -s 0 -d -1 -p SB -e 20 -c 2 -a 0 -i 0 -k RTR
r -t 2.003936589 -s 4 -d -1 -p SB -e 20 -c 2 -a 0 -i 0 -k RTR
+ -t 2.003936589 -s 4 -d -1 -p SB -e 20 -c 2 -a 0 -i 0 -k RTR 
- -t 2.003936589 -s 4 -d -1 -p SB -e 20 -c 2 -a 0 -i 0 -k RTR
h -t 2.003936589 -s 4 -d -1 -p SB -e 20 -c 2 -a 0 -i 0 -k RTR
r -t 2.003936589 -s 6 -d -1 -p SB -e 20 -c 2 -a 0 -i 0 -k RTR
+ -t 2.003936589 -s 6 -d -1 -p SB -e 20 -c 2 -a 0 -i 0 -k RTR 
- -t 2.003936589 -s 6 -d -1 -p SB -e 20 -c 2 -a 0 -i 0 -k RTR
h -t 2.003936589 -s 6 -d -1 -p SB -e 20 -c 2 -a 0 -i 0 -k RTR
r -t 2.004740755 -s 5 -d -1 -p SB -e 20 -c 2 -a 0 -i 0 -k RTR
r -t 2.004740755 -s 10 -d -1 -p SB -e 20 -c 2 -a 0 -i 0 -k RTR
r -t 2.004740824 -s 9 -d -1 -p SB -e 20 -c 2 -a 0 -i 0 -k RTR
r -t 2.004740824 -s 2 -d -1 -p SB -e 20 -c 2 -a 0 -i 0 -k RTR
r -t 2.005774922 -s 4 -d -1 -p SB -e 20 -c 2 -a 0 -i 0 -k RTR
+ -t 2.005774922 -s 4 -d -1 -p SB -e 20 -c 2 -a 0 -i 0 -k RTR 
- -t 2.005774922 -s 4 -d -1 -p SB -e 20 -c 2 -a 0 -i 0 -k RTR
h -t 2.005774922 -s 4 -d -1 -p SB -e 20 -c 2 -a 0 -i 0 -k RTR
r -t 2.005774922 -s 2 -d -1 -p SB -e 20 -c 2 -a 0 -i 0 -k RTR
+ -t 2.005774922 -s 2 -d -1 -p SB -e 20 -c 2 -a 0 -i 0 -k RTR 
- -t 2.005774922 -s 2 -d -1 -p SB -e 20 -c 2 -a 0 -i 0 -k RTR
h -t 2.005774922 -s 2 -d -1 -p SB -e 20 -c 2 -a 0 -i 0 -k RTR
r -t 2.005774922 -s 6 -d -1 -p SB -e 20 -c 2 -a 0 -i 0 -k RTR
+ -t 2.005774922 -s 6 -d -1 -p SB -e 20 -c 2 -a 0 -i 0 -k RTR 
- -t 2.005774922 -s 6 -d -1 -p SB -e 20 -c 2 -a 0 -i 0 -k RTR
h -t 2.005774922 -s 6 -d -1 -p SB -e 20 -c 2 -a 0 -i 0 -k RTR
r -t 2.005774922 -s 9 -d -1 -p SB -e 20 -c 2 -a 0 -i 0 -k RTR
+ -t 2.005774922 -s 9 -d -1 -p SB -e 20 -c 2 -a 0 -i 0 -k RTR 
- -t 2.005774922 -s 9 -d -1 -p SB -e 20 -c 2 -a 0 -i 0 -k RTR
h -t 2.005774922 -s 9 -d -1 -p SB -e 20 -c 2 -a 0 -i 0 -k RTR
r -t 2.005774991 -s 10 -d -1 -p SB -e 20 -c 2 -a 0 -i 0 -k RTR
+ -t 2.005774991 -s 10 -d -1 -p SB -e 20 -c 2 -a 0 -i 0 -k RTR 
- -t 2.005774991 -s 10 -d -1 -p SB -e 20 -c 2 -a 0 -i 0 -k RTR
h -t 2.005774991 -s 10 -d -1 -p SB -e 20 -c 2 -a 0 -i 0 -k RTR
r -t 2.005774991 -s 1 -d -1 -p SB -e 20 -c 2 -a 0 -i 0 -k RTR
+ -t 2.005774991 -s 1 -d -1 -p SB -e 20 -c 2 -a 0 -i 0 -k RTR 